# vtk DataFile Version 4.0
vtk output
ASCII
DATASET POLYDATA
POINTS 36 float
0.57735 0.57735 0.57735 0 1 0 1 0 0 
-0.57735 0.57735 -0.57735 0 0 -1 0.57735 -0.57735 -0.57735 
-1 0 0 -0.57735 -0.57735 0.57735 0 -1 0 
0 0 1 -0.57735 -0.57735 -0.57735 0 -0.707107 -0.707107 
-0.707107 -0.707107 0 0.57735 -0.57735 -0.57735 0 -1 0 
-0.57735 -0.57735 0.57735 0.57735 -0.57735 0.57735 0 -0.707107 0.707107 
0.707107 -0.707107 0 -0.707107 0 -0.707107 -1 0 0 
-0.57735 0.57735 -0.57735 -0.57735 0.57735 0.57735 -0.707107 0.707107 0 
-0.707107 0 0.707107 0 0 1 0.57735 0.57735 0.57735 
0 0.707107 0.707107 0.707107 0 0.707107 0 0.707107 -0.707107 
0 1 0 0.57735 0.57735 -0.57735 0.707107 0.707107 0 
0.707107 0 -0.707107 1 0 0 0 0 -1 

POLYGONS 64 256
3 0 1 2 
3 1 3 4 
3 2 1 4 
3 2 4 5 
3 3 6 4 
3 6 7 8 
3 4 6 8 
3 4 8 5 
3 0 2 9 
3 2 5 8 
3 9 2 8 
3 9 8 7 
3 0 9 1 
3 9 7 6 
3 1 9 6 
3 1 6 3 
3 10 11 12 
3 11 13 14 
3 12 11 14 
3 12 14 15 
3 16 17 18 
3 17 15 14 
3 18 17 14 
3 18 14 13 
3 10 12 19 
3 12 15 20 
3 19 12 20 
3 19 20 21 
3 22 23 24 
3 23 21 20 
3 24 23 20 
3 24 20 15 
3 15 17 24 
3 17 16 25 
3 24 17 25 
3 24 25 22 
3 26 27 28 
3 27 22 25 
3 28 27 25 
3 28 25 16 
3 21 23 29 
3 23 22 30 
3 29 23 30 
3 29 30 31 
3 26 32 27 
3 32 31 30 
3 27 32 30 
3 27 30 22 
3 13 33 18 
3 33 31 34 
3 18 33 34 
3 18 34 16 
3 26 28 32 
3 28 16 34 
3 32 28 34 
3 32 34 31 
3 10 19 11 
3 19 21 35 
3 11 19 35 
3 11 35 13 
3 31 33 29 
3 33 13 35 
3 29 33 35 
3 29 35 21 

POINT_DATA 36
NORMALS Normals float
-0.57735 -0.57735 -0.57735 0 -1 -3.78809e-09 -1 0 0 
0.57735 -0.57735 0.57735 3.78809e-09 0 1 -0.57735 0.57735 0.57735 
1 0 -3.78809e-09 0.57735 0.57735 -0.57735 -3.78809e-09 1 0 
0 0 -1 -0.57735 -0.57735 -0.57735 -0.13146 -0.70097 -0.70097 
-0.70097 -0.70097 -0.13146 0.504536 -0.610509 -0.610509 -5.65346e-09 -1 -5.65346e-09 
-0.61051 -0.61051 0.504536 0.61051 -0.504536 0.61051 0 -0.707107 0.707107 
0.707107 -0.707107 5.74617e-09 -0.70097 -0.13146 -0.70097 -1 -5.65346e-09 -5.65346e-09 
-0.610509 0.504536 -0.610509 -0.504536 0.61051 0.61051 -0.707107 0.707107 0 
-0.707107 5.74617e-09 0.707107 -5.65346e-09 -5.65346e-09 1 0.57735 0.57735 0.57735 
0.13146 0.70097 0.70097 0.70097 0.13146 0.70097 -5.74617e-09 0.707107 -0.707107 
-5.65346e-09 1 -5.65346e-09 0.610509 0.610509 -0.504536 0.70097 0.70097 0.13146 
0.707107 0 -0.707107 1 -5.65346e-09 -5.65346e-09 -5.65346e-09 -5.65346e-09 -1 

FIELD FieldData 1
label 1 36 float
0 0 0 0 0 0 0 0 0 
0 1 1 1 1 1 1 1 1 
1 1 1 1 1 1 1 1 1 
1 1 1 1 1 1 1 1 1 

