# vtk DataFile Version 4.0
vtk output
ASCII
DATASET POLYDATA
POINTS 40962 float
0 0.715329 -1.15743 0 0.68725 1.11199 0 -0.669741 1.08366 
-0.598906 0.96905 0 -0.685219 -1.10871 0 0.547956 0.886611 0 
0.664016 -1.0744 0 0 -0.639304 -1.03441 1.00218 0 0.61938 
-1.09178 0 0.674756 -1.00987 0 -0.624132 1.1778 0 -0.727918 
-0.357359 0.935578 -0.578219 0.433667 1.13536 -0.701688 0.720764 0.445456 -1.16622 
0 0 -1.26738 -0.559526 0.345806 -0.905331 0.350812 0.918438 0.567626 
-0.367747 0.962775 0.595028 -0.630147 0.389452 1.0196 0 0 1.38332 
0.617513 0.381644 0.999157 -0.640861 -0.396074 1.03693 0.585778 -0.362031 0.947809 
-0.398671 -1.04373 0.645063 0.35783 -0.93681 0.57898 0 1.06109 0 
-0.901029 0.556867 -0.344163 -0.974509 0.602279 0.372229 0 -1.26499 0 
-0.397263 -1.04005 -0.642784 -1.00139 -0.618894 0.382498 -0.906493 -0.560243 -0.346249 
0.950909 0.587694 0.363215 1.1376 0.703074 -0.434524 0.418734 -1.09626 -0.677526 
0.9922 -0.613213 -0.378987 0.979886 -0.605603 0.374283 0.600128 -0.3709 -0.971028 
-0.601274 -0.371608 -0.972882 1.2469 0 0 -1.30735 0 0 
-0.209131 0.903306 -0.914068 0.230353 0.994973 -1.00683 0.370358 0.618311 -1.22934 
0 0.328147 -1.15513 -0.309715 0.517068 -1.02805 0.202568 0.87496 0.885385 
-0.201952 0.872298 0.882691 -0.33387 0.557395 1.10823 0 0.369096 1.29927 
0.33922 0.566327 1.12599 0 -0.374261 1.31745 -0.337574 -0.563579 1.12052 
0.328423 -0.548301 1.09015 -0.168928 -0.729657 0.73835 0.172745 -0.746142 0.755031 
-0.492898 0.979993 -0.295238 -0.297665 1.04782 0 -0.463713 0.921966 0.277756 
-0.778269 0.787541 -0.180182 -0.732559 0.741287 0.1696 -0.584739 -1.16259 0.350249 
-0.30662 -1.07935 0 -0.479902 -0.954154 -0.287453 -0.936019 -0.947171 0.216704 
-0.873313 -0.883718 -0.202187 0.55585 1.10516 -0.332945 0.280264 0.986572 0 
0.500432 0.994973 0.299751 0.806436 0.816044 0.186704 0.880057 0.890542 -0.203748 
0.472364 -0.939167 0.282938 0.359865 -1.26678 0 0.592027 -1.17708 -0.354614 
0.862837 -0.873117 -0.199762 0.743311 -0.752167 0.172089 0 -0.365427 -1.28636 
0.331769 -0.553887 -1.10125 -0.321144 -0.536149 -1.06598 0.195938 -0.846323 -0.856406 
-0.197102 -0.851349 -0.861493 0.735232 0.168215 0.726575 0.783553 -0.17927 0.774327 
1.00613 0.30311 0.506042 1.05438 0 0.299528 1.04822 -0.315792 0.527214 
-0.892002 0.204082 0.881499 -0.889848 -0.203589 0.879371 -1.10001 0.331395 0.553262 
-1.25268 0 0.35586 -1.0249 -0.308766 0.515483 -0.750239 0.171648 -0.741406 
-0.760407 -0.173975 -0.751454 -1.02996 0.310291 -0.51803 -1.22615 0 -0.348325 
-1.0085 -0.303827 -0.507238 0.999877 0.228763 -0.988105 0.869407 -0.198913 -0.85917 
1.24902 0.376288 -0.628211 1.30774 0 -0.371501 1.10723 -0.33357 -0.556894 
0 1.12264 -0.693833 -0.181324 1.06149 -0.293388 -0.481566 0.665508 -0.779191 
-0.66198 0.775059 -0.479013 0.199441 1.16755 -0.322702 0.634587 0.876977 -1.02678 
0.837975 0.981118 -0.606364 0.323236 0.199771 -1.16948 0.647064 0 -1.04697 
1.02697 0.634704 -0.877139 0.337742 -0.208736 -1.22196 -0.313993 0.194058 -1.13604 
-0.343837 -0.212503 -1.24402 -0.639201 0 -1.03425 -0.722855 0.446749 -0.617392 
0 1.03922 0.642271 0.174567 1.02193 0.282455 0.507859 0.701844 0.821733 
0.685769 0.802912 0.496227 -0.183519 1.07434 0.29694 -0.515529 0.712443 0.834143 
-0.666896 0.780815 0.48257 -0.351905 0.217489 1.2732 -0.689851 0 1.1162 
-0.834888 0.515989 0.71308 -0.35918 -0.221986 1.29953 0.353152 0.21826 1.27772 
0.352452 -0.217827 1.27518 0.650012 0 1.05174 0.765694 0.473225 0.653981 
-0.45929 -0.634723 0.743147 -0.707083 -0.437001 0.603921 0.467316 -0.645815 0.756133 
0.832917 -0.514771 0.711396 0 -1.01993 0.630354 -0.200732 -1.17511 0.324791 
-0.778084 -0.910997 0.563027 0.177402 -1.03853 0.287043 0.70685 -0.827594 0.511482 
-1.00345 0.620164 0 -1.21166 0.334894 -0.206976 -1.23435 0.341166 0.210852 
0.228379 -1.33695 -0.369525 -0.215499 -1.26155 -0.348685 0 -1.1686 -0.722236 
-0.475673 -0.657364 -0.769655 -0.621082 -0.727175 -0.449419 -1.05099 -0.64955 0 
-1.13009 -0.312349 0.193042 -1.13987 -0.315051 -0.194712 -0.718872 -0.444287 -0.61399 
1.02098 0.630997 0 1.07364 0.296746 0.183399 1.28547 0.355296 -0.219585 
0.462148 -0.638673 -0.747772 0.748708 -0.876603 -0.54177 0.943764 -0.583278 0 
1.19014 -0.328948 -0.203301 0.796899 -0.492511 -0.680633 1.0245 -0.283165 0.175005 
-0.108882 0.826679 -1.05254 0.114415 0.868687 -1.10602 0.183608 0.677952 -1.21043 
0 0.526587 -1.1946 -0.168534 0.622292 -1.11105 0.104637 0.794453 1.01151 
-0.104102 0.790387 1.00633 -0.17056 0.629773 1.12441 0 0.535976 1.2159 
0.172401 0.63657 1.13654 0 -0.538069 1.22065 -0.169777 -0.626883 1.11925 
0.16786 -0.619804 1.10661 -0.0972124 -0.738078 0.93973 0.0970887 -0.737139 0.938534 
-0.558829 0.997741 -0.151347 -0.453888 1.02968 0 -0.530686 0.947495 0.143725 
-0.704468 0.896937 -0.0927856 -0.680699 0.866674 0.0896549 -0.647928 -1.15682 0.175477 
-0.501565 -1.13784 0 -0.584663 -1.04387 -0.158343 -0.829438 -1.05605 0.109245 
-0.794641 -1.01175 -0.104662 0.574507 1.02573 -0.155593 0.422642 0.958797 0 
0.558329 0.996849 0.151211 0.695098 0.885007 0.0915515 0.719586 0.916186 -0.0947768 
0.580119 -1.03575 0.157112 0.524558 -1.19 0 0.643116 -1.14823 -0.174174 
0.774732 -0.986399 -0.10204 0.721132 -0.918154 0.0949804 0 -0.5261 -1.1935 
0.165287 -0.610303 -1.08964 -0.161685 -0.597003 -1.0659 0.0840765 -0.638345 -0.812748 
-0.0868541 -0.659433 -0.839599 0.891796 0.0922537 0.70043 0.912078 -0.0943518 0.716359 
1.01077 0.153324 0.566129 1.06946 0 0.471421 1.03681 -0.157273 0.580713 
-1.00351 0.103811 0.788175 -0.997226 -0.10316 0.783236 -1.11405 0.168989 0.623973 
-1.18257 0 0.521282 -1.08755 -0.164969 0.609128 -0.87865 0.0908938 -0.690105 
-0.876995 -0.0907226 -0.688805 -1.03836 0.157507 -0.581577 -1.13418 0 -0.499951 
-1.03087 -0.156372 -0.577385 1.10285 0.114086 -0.866193 1.0418 -0.107771 -0.818242 
1.23575 0.18745 -0.692135 1.26537 0 -0.557783 1.15304 -0.174904 -0.645811 
-0.29405 0.940929 -0.752624 -0.195499 1.04999 -0.648928 -0.272425 1.01699 -0.440792 
-0.3927 0.883652 -0.401679 -0.42965 0.817244 -0.695189 -0.481641 0.804097 -0.49696 
0.339295 1.08571 -0.86843 0.214378 1.15138 -0.711592 0.315482 1.17773 -0.51046 
0.507368 1.14168 -0.518969 0.543755 1.03428 -0.879814 0.645071 1.07694 -0.665588 
0.551827 0.539492 -1.21396 0.525132 0.324549 -1.21158 0.705078 0.212415 -1.14084 
0.871494 0.340492 -1.08954 0.696038 0.674583 -1.12621 0.893237 0.552051 -1.05006 
0 0.156861 -1.12619 0.15137 0.0935516 -1.1235 0.171147 -0.105775 -1.2703 
0 -0.182844 -1.31274 -0.164284 0.101533 -1.21936 -0.174498 -0.107846 -1.29517 
-0.406968 0.397871 -0.895288 -0.445743 0.275484 -1.02841 -0.613323 0.184773 -0.992377 
-0.683844 0.267177 -0.854941 -0.497992 0.482641 -0.805768 -0.654947 0.40478 -0.769936 
0.287563 0.920172 0.736021 0.187346 1.0062 0.621865 0.263471 0.983564 0.426304 
0.40687 0.915538 0.416173 0.433402 0.824379 0.701259 0.491544 0.820631 0.507178 
-0.290866 0.93074 0.744474 -0.190335 1.02225 0.631787 -0.278808 1.04082 0.451121 
-0.428465 0.964133 0.438262 -0.446577 0.849441 0.722577 -0.524136 0.875043 0.540807 
-0.486817 0.475934 1.07095 -0.501827 0.310146 1.15781 -0.67037 0.201959 1.08468 
-0.765625 0.29913 0.957184 -0.576833 0.559052 0.933336 -0.739815 0.457231 0.869705 
0 0.189038 1.35721 -0.182203 0.112608 1.35236 -0.183922 -0.11367 1.36512 
0 -0.191017 1.37143 0.182396 0.112727 1.35379 0.183004 -0.113103 1.3583 
0.490774 0.479804 1.07965 0.5019 0.310191 1.15798 0.645049 0.194331 1.04371 
0.709187 0.277079 0.886624 0.570524 0.552938 0.923127 0.684116 0.422807 0.804227 
-0.515212 -0.318419 1.18869 -0.495997 -0.48491 1.09114 -0.681547 -0.205326 1.10277 
-0.771534 -0.301438 0.964572 -0.564785 -0.547376 0.913842 -0.722781 -0.446703 0.84968 
0.630475 -0.18994 1.02013 0.654867 -0.255856 0.818714 0.4929 -0.304629 1.13721 
0.471086 -0.460556 1.03634 0.513792 -0.497954 0.831332 0.672889 -0.415868 0.791028 
-0.288002 -0.921577 0.737145 -0.19499 -1.04725 0.647236 -0.308735 -1.15254 0.499543 
-0.499737 -1.12451 0.511164 -0.457809 -0.870805 0.740751 -0.598617 -0.999389 0.617656 
0.268307 -0.858555 0.686734 0.182114 -0.978096 0.604496 0.267171 -0.997377 0.432291 
0.421917 -0.949397 0.431564 0.427746 -0.813622 0.692108 0.534494 -0.892336 0.551494 
0.0931636 1.11885 -0.150742 0.146294 1.05033 0 -0.0893518 1.07307 -0.144574 
-0.140922 1.01176 0 -0.0886469 1.0646 0.143434 0.0868046 1.04248 0.140453 
-0.797156 0.637624 -0.249119 -0.967598 0.598009 -0.180159 -1.07907 0.467699 -0.289054 
-0.984223 0.447395 -0.437394 -0.776392 0.660438 -0.408173 -0.806608 0.498511 -0.483145 
-0.870144 0.696005 0.271929 -1.00557 0.621474 0.187228 -1.12048 0.485647 0.300146 
-1.05226 0.478322 0.467629 -0.915106 0.565567 0.548133 -0.816751 0.69477 0.429392 
0.098459 -1.18244 0.15931 0.180301 -1.29448 0 -0.0856051 -1.02807 0.138512 
-0.162422 -1.16612 0 -0.107579 -1.29196 -0.174066 0.111952 -1.34448 -0.181142 
-0.304013 -0.972809 -0.778123 -0.210232 -1.12911 -0.697831 -0.314876 -1.17547 -0.509481 
-0.46424 -1.04463 -0.474855 -0.454791 -0.865064 -0.735867 -0.543905 -0.908047 -0.561204 
-0.996166 -0.796806 0.311312 -1.05232 -0.650368 0.195933 -0.986847 -0.427727 0.26435 
-0.921178 -0.418736 0.409376 -0.918802 -0.781579 0.483043 -0.89715 -0.554469 0.537378 
-0.914316 -0.731336 -0.285733 -1.00033 -0.618235 -0.186253 -0.964237 -0.417928 -0.258293 
-0.930638 -0.423037 -0.41358 -0.777817 -0.480718 -0.4659 -0.797515 -0.678407 -0.419279 
0.891448 0.713045 0.278586 0.907434 0.560825 0.168957 0.983588 0.426315 0.263477 
0.987573 0.448918 0.438883 0.843082 0.717168 0.443234 0.892612 0.551664 0.534659 
1.02259 0.817941 -0.319569 1.10764 0.68456 -0.206234 1.23291 0.534378 -0.330264 
1.2154 0.552478 -0.540128 1.11045 0.686294 -0.665139 1.00423 0.854245 -0.527953 
0.309619 -0.99075 -0.792474 0.215295 -1.15631 -0.714637 0.33494 -1.25037 -0.541944 
0.515284 -1.15949 -0.527066 0.468423 -0.890994 -0.757925 0.598006 -0.998369 -0.617026 
0.93231 -0.745729 -0.291356 1.00484 -0.621027 -0.187094 1.10056 -0.477013 -0.29481 
1.05071 -0.477619 -0.466943 0.87628 -0.745408 -0.460687 0.921084 -0.569261 -0.551714 
[...]
POINT_DATA 40962
FIELD FieldData 1
phi 1 40962 float
9.85398 9.85398 25.5619 12.6219 22.7941 7.08611 28.3298 25.5619 2 
17.708 17.708 2 11.6783 8.02966 4.76787 2 14.9401 8.02966 
11.6783 14.9401 2 4.76787 20.4758 30.6481 23.7376 27.3863 9.85398 
14.9401 14.9401 25.5619 23.7376 20.4758 20.4758 4.76787 4.76787 27.3863 
30.6481 30.6481 30.6481 20.4758 2 17.708 10.9915 8.71644 7.15562 
9.85398 12.5523 8.71644 10.9915 12.5523 9.85398 7.15562 25.5619 22.8636 
28.2603 24.4244 26.6995 12.184 11.2379 12.184 13.7514 13.7514 23.2319 
24.178 23.2319 21.6646 21.6646 7.52391 8.47005 7.52391 5.9566 5.9566 
27.892 26.9459 27.892 29.4593 29.4593 25.5619 28.2603 22.8636 26.6995 
24.4244 3.1246 32.2913 3.46309 2 31.9528 16.5834 18.8326 16.2449 
17.708 19.171 16.5834 18.8326 16.2449 17.708 19.171 3.1246 32.2913 
3.46309 2 31.9528 9.85398 10.6999 12.986 13.3883 9.00805 6.72201 
6.31963 4.76787 2 4.76787 30.6481 14.9401 20.4758 17.708 14.9401 
9.85398 9.00805 6.72201 6.31963 10.6999 12.986 13.3883 14.9401 17.708 
14.9401 20.4758 4.76787 30.6481 2 4.76787 22.43 20.4758 28.6939 
30.6481 25.5619 24.716 22.0276 26.4079 29.0963 14.9401 16.3597 16.3597 
26.4079 24.716 25.5619 22.43 22.0276 20.4758 19.0563 19.0563 20.4758 
4.76787 3.3483 3.3483 28.6939 29.0963 30.6481 32.0676 30.6481 32.0676 
10.5088 9.1992 8.53156 9.85398 11.1764 9.1992 10.5088 11.1764 9.85398 
8.53156 25.5619 24.2395 26.8844 24.9072 26.2167 12.4068 11.9299 12.4068 
13.1829 13.1829 23.0091 23.486 23.0091 22.233 22.233 7.30118 7.77808 
7.30118 6.52506 6.52506 28.1147 27.6378 28.1147 28.8909 28.8909 25.5619 
26.8844 24.2395 26.2167 24.9072 2.5154 32.9005 2.75271 2 32.6632 
17.1926 18.2234 16.9553 17.708 18.4607 17.1926 18.2234 16.9553 17.708 
18.4607 2.5154 32.9005 2.75271 2 32.6632 11.3685 10.7744 11.1626 
11.9449 12.2741 12.5523 8.33951 8.93356 8.54534 7.76302 7.43388 7.15562 
5.87048 4.76787 3.46309 3.86232 5.84873 4.76787 9.85398 4.76787 30.6481 
25.5619 14.9401 20.4758 13.8375 14.9401 16.2449 15.8456 13.8592 14.9401 
8.33951 8.93356 8.54534 7.76302 7.43388 7.15562 11.3685 10.7744 11.1626 
11.9449 12.2741 12.5523 13.8375 14.9401 16.2449 15.8456 13.8592 14.9401 
9.85398 14.9401 20.4758 25.5619 4.76787 30.6481 5.87048 4.76787 3.46309 
3.86232 5.84873 4.76787 20.4758 21.5784 19.171 19.5703 21.5567 20.4758 
31.9528 31.5536 30.6481 29.5455 29.5672 30.6481 24.0475 24.6415 24.2533 
23.471 23.1418 22.8636 27.0764 26.4824 26.8706 27.6529 27.982 28.2603 
9.4386 9.16201 10.2694 10.5459 10.2694 9.4386 14.3346 14.9401 15.663 
15.5747 14.1836 14.9401 14.3346 14.9401 15.663 15.5747 14.9401 14.1836 
25.9773 26.2539 25.1466 24.87 25.1466 25.9773 24.0475 24.6415 24.2533 
23.471 23.1418 22.8636 21.0813 20.4758 19.7529 19.8412 21.2323 20.4758 
21.0813 20.4758 19.7529 19.8412 20.4758 21.2323 5.37332 4.76787 4.04494 
4.13322 5.52436 4.76787 5.37332 4.76787 4.04494 4.13322 4.76787 5.52436 
27.0764 26.4824 26.8706 27.6529 27.982 28.2603 30.0426 30.6481 31.371 
31.2827 29.8916 30.6481 30.0426 30.6481 31.371 31.2827 30.6481 29.8916 
30.6481 29.5455 31.9528 31.5536 29.5672 30.6481 19.171 19.5703 20.4758 
21.5784 21.5567 20.4758 2.66962 2 2.66962 2 32.7463 32.7463 
17.0383 17.708 17.0383 17.708 18.3776 18.3776 9.85398 10.3721 11.6386 
11.9982 9.33584 8.06932 7.70981 8.09301 6.25531 6.9001 7.13984 11.615 
12.5681 13.4527 12.8079 9.85398 9.33584 8.06932 7.70981 10.3721 11.6386 
11.9982 11.615 13.4527 12.8079 12.5681 8.09301 7.13984 6.25531 6.9001 
22.8478 23.801 28.2761 27.3229 21.9633 23.7773 22.6081 29.1606 27.3466 
28.5158 25.5619 25.0438 23.4178 26.0801 27.7061 11.4423 11.7027 12.7666 
12.9764 10.9737 10.9737 11.7027 11.4423 12.7666 12.9764 13.7514 14.3496 
13.5777 14.3496 13.5777 23.9736 23.7132 22.6493 22.4396 24.4422 24.4422 
23.7132 23.9736 22.6493 22.4396 21.6646 21.0663 21.8382 21.0663 21.8382 
8.26567 8.00527 6.94137 6.73161 8.73423 8.00527 8.73423 8.26567 6.94137 
6.73161 5.9566 5.35833 6.13025 5.35833 6.13025 27.1503 27.4107 28.4746 
28.6843 26.6817 27.4107 26.6817 27.1503 28.4746 28.6843 29.4593 30.0576 
29.2857 30.0576 29.2857 28.2761 27.3229 22.8478 23.801 29.1606 27.3466 
28.5158 21.9633 23.7773 22.6081 25.5619 26.0801 27.7061 25.0438 23.4178 
2.65042 2 3.9944 3.31272 32.7655 31.4215 32.1032 3.40309 2.70743 
4.0802 2.68278 32.7331 32.7085 32.0128 31.3357 17.0575 17.708 15.7136 
16.3952 18.3584 19.7024 19.0207 16.3049 17.0005 15.6278 17.0252 18.4154 
18.3907 19.1111 19.7882 17.0575 17.708 15.7136 16.3952 18.3584 19.7024 
19.0207 16.3049 17.0005 15.6278 17.0252 18.3907 18.4154 19.1111 19.7882 
2.65042 2 3.9944 3.31272 32.7655 31.4215 32.1032 3.40309 2.70743 
4.0802 2.68278 32.7085 32.7331 32.0128 31.3357 10.3036 9.40435 9.85398 
14.0169 13.2093 14.1204 6.49866 5.6911 5.58757 3.01584 2 32.4001 
17.708 16.6921 18.7238 9.40435 10.3036 9.85398 5.6911 6.49866 5.58757 
13.2093 14.0169 14.1204 16.6921 17.708 18.7238 2 3.01584 32.4001 
21.3991 22.2066 21.2955 28.9173 29.7248 29.8284 25.1123 26.0116 25.5619 
15.6451 15.6451 16.3597 26.0116 25.5619 25.1123 22.2066 21.3991 21.2955 
19.7708 19.7708 19.0563 4.06287 4.06287 3.3483 29.7248 28.9173 29.8284 
31.3531 31.3531 32.0676 10.2086 9.49936 9.2082 9.85398 10.4998 9.49936 
10.2086 10.4998 9.85398 9.2082 25.5619 24.9162 26.2077 25.2073 25.9166 
12.5148 12.2759 12.5148 12.9019 12.9019 22.9011 23.1401 22.9011 22.514 
22.514 7.19318 7.43209 7.19318 6.80605 6.80605 28.2227 27.9838 28.2227 
28.6099 28.6099 25.5619 26.2077 24.9162 25.9166 25.2073 2.24784 33.1681 
2.38164 2 33.0343 17.4601 17.9558 17.3263 17.708 18.0896 17.4601 
17.9558 17.3263 17.708 18.0896 2.24784 33.1681 2.38164 2 33.0343 
11.53 11.2294 11.4123 11.8159 11.9642 12.1197 8.17794 8.47861 8.29564 
7.89206 7.7438 7.58827 5.29392 4.76787 4.14188 4.29175 5.33654 4.76787 
9.85398 4.76787 30.6481 25.5619 14.9401 20.4758 14.414 14.9401 15.5661 
15.4162 14.3714 14.9401 8.17794 8.47861 8.29564 7.89206 7.7438 7.58827 
11.53 11.2294 11.4123 11.8159 11.9642 12.1197 14.414 14.9401 15.5661 
15.4162 14.3714 14.9401 9.85398 14.9401 20.4758 25.5619 4.76787 30.6481 
5.29392 4.76787 4.14188 4.29175 5.33654 4.76787 20.4758 21.0019 19.8498 
19.9997 21.0445 20.4758 31.274 31.1242 30.6481 30.122 30.0794 30.6481 
23.8859 24.1866 24.0036 23.6 23.4518 23.2962 27.238 26.9373 27.1203 
27.5239 27.6721 27.8277 9.64722 9.508 10.0607 10.2 10.0607 9.64722 
14.6341 14.9401 15.3053 15.2533 14.5664 14.9401 14.6341 14.9401 15.3053 
15.2533 14.9401 14.5664 25.7687 25.9079 25.3552 25.216 25.3552 25.7687 
23.8859 24.1866 24.0036 23.6 23.4518 23.2962 20.7818 20.4758 20.1106 
20.1626 20.8495 20.4758 20.7818 20.4758 20.1106 20.1626 20.4758 20.8495 
5.07382 4.76787 4.40263 4.45462 5.14153 4.76787 5.07382 4.76787 4.40263 
4.45462 4.76787 5.14153 27.238 26.9373 27.1203 27.5239 27.6721 27.8277 
30.3421 30.6481 31.0133 30.9613 30.2744 30.6481 30.3421 30.6481 31.0133 
30.9613 30.6481 30.2744 30.6481 30.122 31.274 31.1242 30.0794 30.6481 
19.8498 19.9997 20.4758 21.0019 21.0445 20.4758 2.33424 2 2.33424 
2 33.0817 33.0817 17.3737 17.708 17.3737 17.708 18.0422 18.0422 
10.7667 10.4265 10.6668 11.1903 11.29 11.4948 8.9413 9.28149 9.04112 
8.51763 8.41799 8.21321 7.84093 7.55858 6.75783 6.49401 7.65515 7.01475 
9.85398 8.82629 8.5394 9.85398 10.8817 11.1686 11.867 12.1494 12.9501 
13.214 12.0528 12.6932 8.9413 9.28149 9.04112 8.51763 8.41799 8.21321 
10.7667 10.4265 10.6668 11.1903 11.29 11.4948 11.867 12.1494 12.9501 
13.214 12.0528 12.6932 9.85398 10.8817 11.1686 9.85398 8.82629 8.5394 
7.84093 7.55858 6.75783 6.49401 7.65515 7.01475 25.5619 24.2474 24.5343 
25.5619 26.8765 26.5896 23.2665 23.5489 22.4658 22.202 23.3631 22.7227 
28.6581 28.9219 27.8574 27.575 27.7608 28.4012 24.6493 24.9894 24.7491 
24.2256 24.126 23.9212 26.4746 26.1344 26.3748 26.8983 26.9979 27.2027 
12.0672 11.8134 11.9402 12.2969 12.4711 12.5825 11.1064 10.8919 11.4693 
11.5839 11.4693 11.1064 12.0672 11.8134 11.9402 12.2969 12.4711 12.5825 
13.4657 13.7514 14.052 14.0407 13.3658 13.666 13.4657 13.7514 14.052 
14.0407 13.666 13.3658 23.3488 23.6025 23.4757 23.119 22.9448 22.8334 
24.3095 24.524 23.9466 23.832 23.9466 24.3095 23.3488 23.6025 23.4757 
23.119 22.9448 22.8334 21.9502 21.6646 21.364 21.3752 22.0501 21.75 
21.9502 21.6646 21.364 21.3752 21.75 22.0501 7.6408 7.89457 7.76775 
7.41108 7.23685 7.12543 8.23868 8.12406 8.60155 8.81603 8.60155 8.23868 
7.6408 7.89457 7.76775 7.41108 7.23685 7.12543 6.24222 5.9566 5.656 
5.66727 6.34213 6.042 6.24222 5.9566 5.656 5.66727 6.042 6.34213 
27.7751 27.5214 27.6482 28.0048 28.1791 28.2905 27.1772 27.2919 26.8144 
26.5999 26.8144 27.1772 27.7751 27.5214 27.6482 28.0048 28.1791 28.2905 
29.1737 29.4593 29.7599 29.7487 29.0738 29.3739 29.1737 29.4593 29.7599 
29.7487 29.3739 29.0738 25.5619 26.8765 26.5896 25.5619 24.2474 24.5343 
27.8574 27.575 28.6581 28.9219 27.7608 28.4012 22.4658 22.202 23.2665 
23.5489 23.3631 22.7227 26.4746 26.1344 26.3748 26.8983 26.9979 27.2027 
24.6493 24.9894 24.7491 24.2256 24.126 23.9212 3.47495 2.9042 2.56581 
2.80628 3.57184 3.2248 32.8501 32.6096 32.5117 31.941 31.8441 32.1911 
3.80294 3.43224 3.07852 3.11313 3.76383 3.39141 2.34378 2 2.34842 
2 33.0675 33.0722 31.613 31.9837 32.3374 32.3028 32.0245 31.6521 
16.233 16.8038 17.1422 16.9017 16.1361 16.4832 18.6122 19.1829 18.2738 
18.5142 19.2798 18.9328 15.905 16.2757 16.6294 16.5948 16.3166 15.9441 
17.3595 17.708 17.3642 17.708 18.0517 18.0564 19.5109 19.1402 18.7865 
18.8211 19.4718 19.0994 16.233 16.8038 17.1422 16.9017 16.1361 16.4832 
18.2738 18.5142 18.6122 19.1829 19.2798 18.9328 15.905 16.2757 16.6294 
16.5948 15.9441 16.3166 17.3642 17.708 17.3595 17.708 18.0564 18.0517 
19.5109 19.1402 18.7865 18.8211 19.0994 19.4718 3.47495 2.9042 2.56581 
2.80628 3.57184 3.2248 32.5117 31.941 32.8501 32.6096 31.8441 32.1911 
3.80294 3.43224 3.07852 3.11313 3.39141 3.76383 2.34842 2 2.34378 
2 33.0722 33.0675 31.613 31.9837 32.3374 32.3028 31.6521 32.0245 
9.60542 9.3927 10.1025 10.3153 10.0872 9.62076 10.9261 10.5068 10.2772 
10.4817 11.071 10.8387 12.4968 12.6129 12.9038 13.3993 13.5144 13.1048 
12.9754 13.0719 13.4856 13.791 13.3029 13.7446 8.78189 8.63692 8.86929 
9.22622 9.20112 9.4308 6.80417 6.30862 7.2112 7.0951 6.60313 6.19358 
6.73258 6.40503 5.96335 5.91693 6.6361 6.22238 5.84296 4.76787 5.6083 
4.76787 3.7697 3.48911 2.74298 2.44366 32.9723 32.6729 2.35344 33.0625 
4.76787 4.3927 4.41421 4.76787 5.21589 5.18983 30.6481 29.573 29.8076 
30.6481 31.9268 31.6462 14.0997 14.9401 13.865 14.9401 16.2189 15.9383 
20.4758 19.1971 19.4777 20.4758 21.5509 21.3163 16.965 17.3545 18.0614 
18.4509 17.2643 18.1516 14.9401 14.4921 14.5181 14.9401 15.3153 15.2937 
10.1025 10.3153 9.60542 9.3927 9.62076 10.0872 8.78189 9.20112 9.4308 
9.22622 8.63692 8.86929 7.2112 7.0951 6.80417 6.30862 6.19358 6.60313 
6.73258 6.6361 6.22238 5.91693 6.40503 5.96335 10.9261 11.071 10.8387 
10.4817 10.5068 10.2772 12.9038 13.3993 12.4968 12.6129 13.1048 13.5144 
12.9754 13.3029 13.7446 13.791 13.0719 13.4856 13.865 14.9401 14.0997 
14.9401 15.9383 16.2189 16.965 17.2643 18.1516 18.4509 17.3545 18.0614 
14.9401 15.3153 15.2937 14.9401 14.4921 14.5181 20.4758 21.5509 21.3163 
20.4758 19.1971 19.4777 5.6083 4.76787 5.84296 4.76787 3.48911 3.7697 
30.6481 31.9268 31.6462 30.6481 29.573 29.8076 2.74298 2.35344 33.0625 
32.6729 2.44366 32.9723 4.76787 5.21589 5.18983 4.76787 4.3927 4.41421 
22.9192 22.8031 22.5121 22.0166 21.9015 22.3111 20.4758 20.9239 20.8978 
20.4758 20.1007 20.1222 28.6118 29.1073 28.2047 28.3208 28.8128 29.2223 
30.6481 31.0232 31.0017 30.6481 30.2 30.2261 25.8105 26.0232 25.3134 
25.1007 25.3287 25.7952 24.4899 24.9091 25.1388 24.9342 24.3449 24.5773 
22.4405 22.3441 21.9303 21.6249 22.113 21.6713 26.634 26.779 26.5466 
26.1897 26.2148 25.9851 28.6833 29.0109 29.4526 29.499 28.7798 29.1935 
14.6453 14.9401 14.6453 14.9401 15.292 15.292 16.0141 16.0006 16.3597 
16.7007 16.3327 16.6905 16.0141 16.3327 16.6905 16.7007 16.0006 16.3597 
26.634 26.2148 25.9851 26.1897 26.779 26.5466 24.4899 24.3449 24.5773 
24.9342 24.9091 25.1388 25.3134 25.1007 25.8105 26.0232 25.7952 25.3287 
22.5121 22.0166 22.9192 22.8031 22.3111 21.9015 22.4405 22.113 21.6713 
21.6249 22.3441 21.9303 20.7706 20.4758 20.7706 20.4758 20.1239 20.1239 
19.4018 19.4153 19.0563 18.7152 19.0832 18.7254 19.4018 19.0832 18.7254 
18.7152 19.4153 19.0563 20.4758 20.1007 20.1222 20.4758 20.9239 20.8978 
5.06261 4.76787 5.06261 4.76787 4.41597 4.41597 3.69384 3.70737 3.3483 
3.00727 3.37523 3.01745 3.69384 3.37523 3.01745 3.00727 3.70737 3.3483 
28.2047 28.3208 28.6118 29.1073 29.2223 28.8128 28.6833 28.7798 29.1935 
29.499 29.0109 29.4526 30.3533 30.6481 30.3533 30.6481 31 31 
31.7221 31.7086 32.0676 32.4087 32.0407 32.3985 30.6481 30.2 30.2261 
30.6481 31.0232 31.0017 31.7221 32.0407 32.3985 32.4087 31.7086 32.0676 
9.85398 10.1611 10.8071 11.0685 9.54689 8.90083 8.63946 9.12038 8.34215 
8.27801 8.99809 10.5876 10.7099 11.3658 11.4299 9.85398 9.54689 8.90083 
8.63946 10.1611 10.8071 11.0685 10.5876 11.3658 11.4299 10.7099 9.12038 
8.99809 8.34215 8.27801 24.7061 24.8283 26.4178 26.2955 24.0501 24.6088 
23.986 27.0738 26.5151 27.1379 25.5619 25.2548 24.3474 25.869 26.7765 
12.0547 12.1673 12.6895 12.7959 11.8168 11.8168 12.1673 12.0547 12.6895 
12.7959 13.1829 13.4676 13.0807 13.4676 13.0807 23.3612 23.2486 22.7264 
22.62 23.5991 23.5991 23.2486 23.3612 22.7264 22.62 22.233 21.9483 
22.3353 21.9483 22.3353 7.65322 7.54067 7.01847 6.91208 7.89118 7.54067 
7.89118 7.65322 7.01847 6.91208 6.52506 6.24036 6.62731 6.24036 6.62731 
27.7627 27.8753 28.3975 28.5039 27.5247 27.8753 27.5247 27.7627 28.3975 
28.5039 28.8909 29.1756 28.7886 29.1756 28.7886 26.4178 26.2955 24.7061 
24.8283 27.0738 26.5151 27.1379 24.0501 24.6088 23.986 25.5619 25.869 
26.7765 25.2548 24.3474 2.2709 2 2.92219 2.64025 33.145 32.4937 
32.7757 2.72933 2.36788 3.02378 2.35728 33.0587 33.048 32.6866 32.3921 
17.4371 17.708 16.7858 17.0677 17.9789 18.6302 18.3482 16.9786 17.3401 
16.6842 17.3507 18.0758 18.0652 18.4373 18.7317 17.4371 17.708 16.7858 
17.0677 17.9789 18.6302 18.3482 16.9786 17.3401 16.6842 17.3507 18.0652 
18.0758 18.4373 18.7317 2.2709 2 2.92219 2.64025 33.145 32.4937 
32.7757 2.72933 2.36788 3.02378 2.35728 33.048 33.0587 32.6866 32.3921 
10.8736 11.0606 11.6659 11.8224 10.5819 10.9759 10.5308 10.7345 11.554 
11.3056 11.6882 12.2419 12.359 12.1441 12.7494 12.4202 12.6627 12.8697 
8.83438 8.64731 8.04202 7.88555 9.12608 9.17721 8.73204 8.15395 8.40238 
8.9735 8.01981 7.46605 7.34895 7.5639 7.28775 6.95855 6.83828 7.04528 
6.03498 5.36528 6.4232 5.85854 5.4648 4.05732 3.93908 3.27109 3.68097 
3.02774 3.26875 4.33368 3.93353 6.36162 5.76376 5.28644 4.36662 5.24704 
8.07831 7.13598 11.6296 12.572 6.24769 3.0152 2 28.2799 29.1682 
32.4007 27.3376 22.8439 23.7863 13.4603 17.708 16.6928 18.7232 21.9557 
13.673 14.3427 13.2848 13.8494 14.2432 15.7689 15.6506 16.027 16.6802 
16.4369 16.4392 15.3743 15.7744 13.3463 14.4215 13.9442 14.4609 15.3413 
8.83438 8.64731 8.04202 7.88555 9.12608 8.73204 9.17721 8.9735 8.15395 
8.40238 8.01981 7.46605 7.34895 7.5639 6.95855 7.28775 7.04528 6.83828 
10.8736 11.0606 11.6659 11.8224 10.5819 10.5308 10.9759 11.554 11.3056 
10.7345 11.6882 12.2419 12.359 12.1441 12.4202 12.7494 12.8697 12.6627 
13.673 14.3427 13.2848 13.8494 14.2432 15.6506 15.7689 16.4369 16.027 
16.6802 16.4392 15.3743 15.7744 13.3463 13.9442 14.4215 15.3413 14.4609 
11.6296 12.572 8.07831 7.13598 13.4603 16.6928 17.708 22.8439 21.9557 
18.7232 23.7863 28.2799 27.3376 6.24769 2 3.0152 32.4007 29.1682 
6.03498 5.36528 6.4232 5.85854 5.4648 3.93908 4.05732 3.68097 3.02774 
3.27109 3.26875 4.33368 3.93353 6.36162 5.28644 5.76376 5.24704 4.36662 
21.1728 21.0732 19.7653 19.647 21.7429 22.1312 21.5665 18.9791 18.7357 
19.3889 18.9767 20.0416 19.6415 22.0696 20.9944 21.4717 20.955 20.0746 
32.3882 31.735 31.3586 32.1448 32.1472 31.0822 31.4824 31.4768 29.9511 
30.0507 29.3809 28.9927 29.5574 29.0543 29.6522 30.1295 31.0493 30.1689 
24.5423 24.3553 23.75 23.5935 24.834 24.44 24.8852 24.6815 23.8619 
24.1103 23.7278 23.174 23.0569 23.2719 22.6665 22.9957 22.7532 22.5462 
26.5815 26.7686 27.3739 27.5304 26.2898 26.2387 26.6839 27.262 27.0135 
26.4424 27.3961 27.9499 28.067 27.852 28.1282 28.4574 28.5776 28.3706 
9.08641 9.29969 9.85398 9.6434 8.94907 8.94907 9.29969 10.0646 10.6216 
10.4083 10.7589 10.4083 10.7589 10.6216 9.85398 10.0646 9.6434 9.08641 
14.3422 14.6399 14.2608 13.9594 14.6435 15.2985 15.2942 15.6539 15.6199 
15.981 15.945 15.6002 15.2637 13.8763 14.5541 14.1532 14.538 15.2771 
14.3422 14.6399 13.9594 14.2608 14.6435 15.2942 15.2985 15.6199 15.981 
15.6539 15.945 15.2637 15.6002 15.2771 14.5541 14.538 14.1532 13.8763 
26.3295 26.1162 25.5619 25.7725 26.4669 26.4669 26.1162 25.3514 24.7944 
25.0077 24.657 25.0077 24.657 24.7944 25.5619 25.3514 25.7725 26.3295 
24.5423 24.3553 23.75 23.5935 24.834 24.8852 24.44 23.8619 24.1103 
24.6815 23.7278 23.174 23.0569 23.2719 22.9957 22.6665 22.5462 22.7532 
21.0737 20.7761 21.1551 21.4565 20.7724 20.1174 20.1217 19.762 19.796 
19.4349 19.471 19.8157 20.1522 21.5396 20.8619 21.2627 20.878 20.1388 
21.0737 20.7761 21.4565 21.1551 20.7724 20.1217 20.1174 19.796 19.4349 
19.762 19.471 20.1522 19.8157 20.1388 20.8619 20.878 21.2627 21.5396 
5.36573 5.06809 5.44712 5.74857 5.06445 4.40947 4.41378 4.05402 4.08806 
3.72694 3.763 4.10776 4.44426 5.83163 5.15389 5.55472 5.17001 4.43083 
5.36573 5.06809 5.74857 5.44712 5.06445 4.41378 4.40947 4.08806 3.72694 
4.05402 3.763 4.44426 4.10776 4.43083 5.15389 5.17001 5.55472 5.83163 
26.5815 26.7686 27.3739 27.5304 26.2898 26.6839 26.2387 26.4424 27.262 
27.0135 27.3961 27.9499 28.067 27.852 28.4574 28.1282 28.3706 28.5776 
30.0502 30.3478 29.9688 29.6674 30.3515 31.0065 31.0021 31.3619 31.3279 
31.689 31.6529 31.3082 30.9717 29.5843 30.262 29.8612 30.2459 30.9851 
30.0502 30.3478 29.6674 29.9688 30.3515 31.0021 31.0065 31.3279 31.689 
31.3619 31.6529 30.9717 31.3082 30.9851 30.262 30.2459 29.8612 29.5843 
29.9511 30.0507 31.3586 31.4768 29.3809 28.9927 29.5574 32.1448 32.3882 
31.735 32.1472 31.0822 31.4824 29.0543 30.1295 29.6522 30.1689 31.0493 
18.7357 19.3889 19.7653 18.9791 18.9767 20.0416 19.6415 19.647 21.1728 
21.0732 21.7429 22.1312 21.5665 22.0696 21.4717 20.9944 20.0746 20.955 
2.67613 2.33585 2.66962 3.00954 2.33879 33.0771 33.0801 3.00954 2.67613 
2.33585 2.33879 33.0801 33.0771 32.7398 32.7463 32.4064 32.4064 32.7398 
17.0318 17.3721 17.0383 16.6984 17.3692 18.0467 18.0438 16.6984 17.0318 
17.3721 17.3692 18.0438 18.0467 18.3841 18.3776 18.7175 18.7175 18.3841 
10.1273 9.5807 9.85398 12.2289 11.8323 12.3755 7.87565 7.47909 7.33247 
7.15163 7.70965 6.6008 11.9983 12.5563 13.1072 9.5807 10.1273 9.85398 
7.47909 7.87565 7.33247 11.8323 12.2289 12.3755 12.5563 11.9983 13.1072 
7.70965 7.15163 6.6008 22.3088 23.4176 22.8596 27.7063 28.8151 28.2643 
23.1871 23.5836 23.0404 27.5403 27.9368 28.0835 25.2887 25.8352 25.5619 
11.5743 11.2048 11.3382 13.1758 12.8736 13.2736 11.2048 11.3382 11.5743 
12.8736 13.1758 13.2736 14.05 14.05 14.3496 23.8417 24.2111 24.0777 
22.2401 22.5423 22.1423 24.2111 24.0777 23.8417 22.5423 22.2401 22.1423 
21.3659 21.3659 21.0663 8.50314 8.13369 8.36972 6.83436 6.53216 6.43433 
8.13369 8.36972 8.50314 6.53216 6.83436 6.43433 5.65796 5.65796 5.35833 
26.9128 27.2822 27.0462 28.5816 28.8838 28.9816 27.2822 27.0462 26.9128 
28.8838 28.5816 28.9816 29.758 29.758 30.0576 28.8151 27.7063 28.2643 
23.4176 22.3088 22.8596 27.9368 27.5403 28.0835 23.5836 23.1871 23.0404 
25.8352 25.2887 25.5619 2 2.30432 33.1116 3.64091 4.0398 3.70465 
31.3761 31.775 31.7113 3.05893 3.03883 2.69483 32.3771 32.7211 32.357 
17.4036 17.708 18.0123 15.6682 16.067 16.0033 19.3489 19.7478 19.4126 
16.6691 16.649 17.0131 18.7669 18.4028 18.7468 17.708 17.4036 18.0123 
16.067 15.6682 16.0033 19.7478 19.3489 19.4126 16.649 16.6691 17.0131 
18.7468 18.4028 18.7669 2.30432 2 33.1116 4.0398 3.64091 3.70465 
31.775 31.3761 31.7113 3.03883 3.05893 2.69483 32.357 32.7211 32.3771 
10.0732 9.85398 9.63481 14.0717 13.5971 13.6737 6.03428 6.11086 5.63629 
2 2.61491 32.801 18.3229 17.093 17.708 9.63481 9.85398 10.0732 