# vtk DataFile Version 4.0
vtk output
ASCII
DATASET POLYDATA
POINTS 12290 float
0.547956 0.886611 0 0.700542 0.457897 -1.17385 -0.367747 0.962775 0.595028 
-0.647493 0.378379 1.0124 -0.653825 -0.404086 1.01537 0.585778 -0.362031 0.947809 
-0.901029 0.556867 -0.344163 -0.974509 0.602279 0.372229 0.0129842 -1.25767 0.0210088 
-0.397263 -1.04005 -0.642784 1.14953 0.68603 -0.448411 0.418734 -1.09626 -0.677526 
0.979886 -0.605603 0.374283 -0.615914 -0.359924 -0.963025 0.369765 0.592484 -1.23443 
0.0225226 0.360939 1.30305 -0.0225545 -0.410604 1.30131 -0.168928 -0.729657 0.73835 
0.209595 -0.735074 0.756559 -0.477359 0.91642 0.290912 -0.785302 0.771025 -0.167919 
-0.725309 0.73395 0.14663 -0.584739 -1.16259 0.350249 -0.303056 -1.09408 0.0189107 
-0.479902 -0.954154 -0.287453 0.280264 0.986572 0 0.514018 0.986797 0.313253 
0.818495 0.804749 0.198471 0.724344 -0.761695 0.178508 0 -0.343355 -1.29337 
0.351907 -0.545025 -1.09936 -0.321144 -0.536149 -1.06598 0.735232 0.168215 0.726575 
0.783553 -0.17927 0.774327 1.04826 -0.296118 0.534751 -0.906913 0.191824 0.87088 
-1.25755 0.0217362 0.348336 -0.747401 0.184327 -0.760167 -1.0085 -0.303827 -0.507238 
1.24902 0.376288 -0.628211 0.174567 1.02193 0.282455 -0.455674 -0.608623 0.767562 
-0.746977 -0.443453 0.592301 0.467316 -0.645815 0.756133 0.0121385 -1.00521 0.641904 
0.153459 -1.02886 0.284371 -0.475673 -0.657364 -0.769655 -0.649732 -0.723112 -0.428514 
-0.718872 -0.444287 -0.61399 1.02098 0.630997 0 0.448572 -0.652651 -0.756487 
0.718272 -0.884493 -0.57301 1.0245 -0.283165 0.175005 0.16786 -0.619804 1.10661 
-0.725915 0.872141 -0.0922782 -0.794641 -1.01175 -0.104662 0.422642 0.958797 0 
0.695098 0.885007 0.0915515 0.715398 0.884616 -0.0578085 0.165287 -0.610303 -1.08964 
0.0974512 -0.669406 -0.827992 -0.103403 -0.646267 -0.831504 1.01077 0.153324 0.566129 
-1.00351 0.103811 0.788175 -0.984426 -0.115863 0.795879 -1.18759 0.0213771 0.515504 
1.26537 0 -0.557783 -0.264582 1.02492 -0.46676 -0.3927 0.883652 -0.401679 
-0.498528 0.821713 -0.489177 0.200505 1.15729 -0.687124 0.132614 0.101651 -1.12567 
0.171147 -0.105775 -1.2703 -0.433209 0.376288 -0.876585 -0.613323 0.184773 -0.992377 
-0.683844 0.267177 -0.854941 -0.290866 0.93074 0.744474 -0.569553 0.579065 0.921556 
-0.183922 -0.11367 1.36512 0.472994 0.49136 1.08736 -0.515212 -0.318419 1.18869 
-0.476885 -0.495403 1.09631 -0.681547 -0.205326 1.10277 -0.783655 -0.309605 0.943118 
0.654867 -0.255856 0.818714 0.480212 -0.539976 0.839036 0.672889 -0.415868 0.791028 
-0.288002 -0.921577 0.737145 -0.19499 -1.04725 0.647236 -0.308735 -1.15254 0.499543 
0.268307 -0.858555 0.686734 0.182114 -0.978096 0.604496 -0.171803 1.02336 0.0172973 
-0.0886469 1.0646 0.143434 -0.800934 0.66031 -0.242788 -0.967598 0.598009 -0.180159 
-0.773891 0.679316 -0.400712 -0.842454 0.482964 -0.493193 -1.00557 0.621474 0.187228 
-1.12048 0.485647 0.300146 -0.804578 0.706252 0.416601 0.131035 -1.17284 0.178587 
-0.0856051 -1.02807 0.138512 -0.162422 -1.16612 0 -0.304013 -0.972809 -0.778123 
-0.210232 -1.12911 -0.697831 -0.976049 -0.428004 0.302858 -0.92568 -0.43803 0.427686 
-0.871614 -0.563124 0.566851 -0.777817 -0.480718 -0.4659 0.907434 0.560825 0.168957 
0.843082 0.717168 0.443234 1.2154 0.552478 -0.540128 0.526095 -1.16423 -0.50643 
0.87628 -0.745408 -0.460687 0.557445 -0.162664 -0.93888 0.645049 -0.25202 -0.80644 
0.647026 -0.422257 -0.75835 -0.470372 -0.459857 -1.03477 -1.30004 0.175155 0.108252 
-1.29083 0.173914 -0.107485 0.161726 0.268077 -1.17696 -0.160954 0.457476 -1.12139 
-0.143401 0.237702 -1.0436 -0.292793 0.307508 -0.956926 0.38547 0.790114 0.864934 
0.0219115 -0.763677 0.772776 0.0920337 -0.884933 0.703496 0.309072 -0.675993 0.733314 
-0.321026 0.976365 -0.281411 -0.587624 0.891989 -0.394108 -0.20253 1.02231 0.122204 
-0.576307 0.833647 0.227699 -0.762583 0.771669 0 -0.829684 0.660072 -0.107446 
-0.461189 -1.18996 0.169495 -0.699648 -1.06204 0.469241 -0.257065 -1.16458 0.180021 
-0.368206 -0.950047 -0.135322 -0.55724 -0.845868 -0.37373 -0.928651 -0.939715 0 
-0.874453 -0.948603 0.39981 0.422596 1.03589 0.148682 0.235614 1.03443 0.142141 
0.792004 0.62962 0.082369 0.764912 0.837345 0.373175 0.355717 -1.01781 0.294934 
0.585879 -0.847494 0.231481 0.827656 -0.638396 0.0951658 0.756688 -0.820852 0.345967 
0.17654 -0.292633 -1.28476 0.173955 -0.473324 -1.22127 -0.251422 -0.617707 -0.866338 
0.0248477 -0.866015 -0.876333 -0.348843 -0.762977 -0.827675 0.75108 0 0.742236 
0.741903 0.294789 0.69008 1.03765 0.142584 0.236348 -1.26879 0.174344 0.288994 
-0.837137 -0.403325 0.588571 -0.765911 0 -0.756893 -0.727133 0.306467 -0.670295 
-0.763776 -0.308034 -0.655783 -0.893661 -0.240169 -0.644049 0.749108 -0.0873915 -0.971514 
-0.536572 0.675793 -0.58975 0.47654 0.140071 -1.14503 0.476 -0.105179 -1.0377 
-0.507172 -0.104483 -1.15874 0.529904 0.667395 0.582421 -0.613671 -0.558336 0.703204 
-0.113602 -1.25986 -0.551434 -0.593542 -0.540023 -0.680139 -1.01598 -0.444689 0.06864 
-1.00016 -0.395909 -0.0888004 1.06833 0.467602 0.0963313 0.611934 -0.556756 -0.701213 
0.93134 -0.407642 0.0839789 -0.0845724 -0.651162 1.10587 0.0841328 -0.647777 1.10012 
0.050354 -0.708785 1.01501 -0.615353 0.969471 -0.0802538 -0.654982 0.937962 -0.0465318 
-0.674444 -1.13149 0.0650661 0.551648 0.975229 0.0738875 0.628632 0.900227 0.0446597 
0.639549 0.888969 -0.0334068 0.588543 -1.13337 0.0210319 0.0609469 -0.631746 -1.05985 
-0.0806104 -0.620657 -1.05406 0.0773357 -0.664916 -0.934654 1.04453 0.0193833 0.542409 
-1.04639 -0.0519106 0.730695 -1.11004 0.105863 0.645609 -1.14429 0.0212346 0.594215 
1.15314 0.0424927 -0.781432 1.21897 0.11625 -0.708959 1.22693 0 -0.645597 
-0.328878 0.944091 -0.666559 -0.404476 0.865788 -0.654455 0.310095 1.1561 -0.68602 
0.473417 1.14395 -0.611526 0.635613 0.46718 -1.19661 0.0643928 -0.0620429 -1.28281 
-0.480599 0.372059 -0.89903 -0.627169 0.309443 -0.888301 0.365584 0.867149 0.445964 
0.411711 0.845512 0.522555 -0.324398 1.00692 0.524887 0.573496 0.419486 1.03318 
-0.559046 -0.413087 1.10085 -0.693443 -0.303672 1.04956 0.613065 -0.339682 0.890659 
0.557489 -0.436816 0.864689 0.59724 -0.369114 0.82205 -0.392702 -1.11388 0.56217 
0.335457 -0.899554 0.639612 0.385694 -0.949952 0.527296 -0.0442359 1.06912 -0.0715752 
-0.841353 0.594022 -0.293088 -0.780485 0.581359 -0.323809 -0.993977 0.614312 0.28053 
-1.06085 0.532114 0.350275 -0.965374 0.575678 0.451723 0.057126 -1.27027 0.0212372 
-1.02813 -0.657186 0.306524 -0.918275 -0.478678 -0.295839 -0.858875 -0.459133 -0.355441 
-0.86107 -0.53217 -0.396186 -0.863283 -0.647781 -0.38055 0.967104 0.536817 0.392658 
1.18167 0.63169 -0.489027 0.441966 -1.02436 -0.715117 0.927315 -0.674572 -0.442289 
0.992938 -0.571445 0.420588 0.533707 -0.329849 -1.07046 0.598081 -0.273118 -0.967716 
0.625201 -0.303072 -0.915151 0.578484 -0.481299 -0.936006 0.637653 -0.394091 -0.877676 
1.25211 -0.0838258 -0.0518072 0 0.227498 -1.08011 -0.0797959 0.382747 -1.14325 
-0.300217 0.42121 -1.01925 0.286534 0.841601 0.881237 0.436342 0.513885 1.10116 
-0.418303 -0.525833 1.10934 0.255756 -0.517405 1.16724 -0.0852653 -0.741423 0.750257 
-0.160279 -0.838383 0.752943 -0.24267 -0.712765 0.746333 0.245157 -0.720068 0.75398 
-0.537138 0.997113 -0.207117 -0.268769 1.05045 -0.0723381 -0.210724 1.0345 0.0175959 
-0.401704 0.972044 0.286313 -0.399179 0.900527 0.197316 -0.490974 0.93864 0.175982 
-0.504246 0.903748 0.317099 -0.544188 0.830703 0.247867 -0.747648 0.712557 0.0837495 
-0.785866 0.726505 0.141547 -0.807622 0.727796 0.221145 -0.64301 0.790335 0.201435 
-0.52687 -1.18859 0.260434 -0.631489 -1.1318 0.397117 -0.288886 -1.12907 0.0777525 
-0.213728 -1.04925 0.0178467 -0.34479 -1.02987 -0.0718825 -0.26657 -1.09052 -0.056143 
-0.441316 -0.964043 -0.230477 -0.517625 -0.973776 -0.220443 -0.530016 -0.888159 -0.342723 
-0.939126 -0.950315 0.135167 -0.990858 -0.84085 0.263892 -0.9233 -0.853558 -0.166301 
-0.898972 -0.810116 -0.246158 0.352892 0.996784 0.0174742 0.216117 1.02608 0 
0.34544 1.03181 0.0720181 0.458308 0.966884 0.364586 0.426045 1.01248 0.279049 
0.454258 1.02478 0.224542 0.541288 1.00482 0.208717 0.754099 0.855727 0.1392 
0.824026 0.807045 0.274248 0.924804 0.829625 -0.151687 0.452907 -0.894377 0.318102 
0.391875 -1.00044 0.293062 0.535721 -0.974222 0.234546 0.517738 -0.897105 0.330283 
0.542332 -0.893141 0.255165 0.778513 -0.69839 0.127692 0.83927 -0.733565 0.215116 
0.661317 -0.781378 0.195329 0.0668174 -0.317252 -1.29786 0.277644 -0.508594 -1.16705 
0.270142 -0.57812 -1.10237 0.282396 -0.613795 -1.0444 -0.397533 -0.499725 -1.05426 
0.0989799 -0.860679 -0.870933 0.207132 -0.701276 -0.828591 -0.275682 -0.809728 -0.847862 
0.720234 0.0818532 0.711754 0.72923 0.254644 0.69039 0.700278 -0.136437 0.757496 
0.690912 -0.188863 0.767572 0.877227 -0.21929 0.742439 0.998799 0.37662 0.473435 
0.966444 0.276108 0.586843 1.02225 0.0528556 0.26874 1.06605 0.0181325 0.217151 
1.0511 -0.0723829 0.268935 -0.846974 -0.180295 0.943083 -1.03382 0.401202 0.589074 
-1.22547 0.0214832 0.433854 -1.26482 0.0653981 0.332511 -0.735446 0.20895 -0.792619 
-0.819762 0.0987215 -0.702172 -0.788635 -0.128287 -0.694976 -0.739889 -0.24355 -0.679501 
-1.09892 0.240787 -0.487122 -1.03961 0.215943 -0.560028 -0.958902 -0.273953 -0.582263 
0.938689 0.285226 -1.04165 0.959819 -0.156133 -0.845829 0.846797 -0.275336 -0.808711 
1.24619 0.258855 -0.671317 1.29741 0 -0.442488 1.31387 0.0223478 -0.267631 
1.13215 -0.256294 -0.601809 0.119382 1.15077 -0.683444 0.0405976 1.14862 -0.628689 
-0.227282 1.0437 -0.367749 -0.146699 1.06933 -0.237364 -0.438347 0.633288 -0.87202 
-0.496329 0.578529 -0.803077 -0.704186 0.792725 -0.41123 0.311526 1.16182 -0.329584 
0.140364 1.17501 -0.393906 0.701143 0.921981 -0.935487 0.734404 0.79192 -1.038 
0.222571 0.24327 -1.1774 0.223151 0.137915 -1.09268 0.408173 0.15082 -1.1485 
0.277102 0.102266 -1.07329 0.498874 -0.0655872 -0.951072 0.706211 -0.0500041 -1.00502 
1.09775 0.627139 -0.772871 0.382236 -0.303496 -1.19936 -0.282335 0.253372 -1.07414 
-0.247215 0.232432 -1.09902 -0.333172 0.076626 -1.20543 -0.261076 -0.161354 -1.27839 
[...]
POINT_DATA 12290
SCALARS randFunc float
LOOKUP_TABLE default
-0.00108123 0.117947 0.021854 0.0409919 0.0480191 0.0178067 0.00782616 0.0253168 0.0424862 
0.0493394 0.0998027 0.0762706 -0.0269889 -0.0248216 0.109306 0.0744051 0.0826405 -0.00161788 
0.00344624 0.00285863 -0.00897262 0.00189017 -0.0731327 -0.00901339 0.00680445 0.000396771 -0.0142309 
-0.0159526 -0.00308374 -0.0688161 -0.0462774 -0.033607 0.0013519 -0.008155 -0.0279906 0.044294 
0.0552696 -0.00285103 0.0172904 0.121356 0.00335997 -0.0038582 0.000455942 -0.00589705 -0.0239608 
0.00511822 0.00847782 0.00194147 0.00120253 0.0242563 0.00453488 0.0453495 -0.0036079 0.0472373 
-0.0125949 -0.0511468 -0.0013833 -0.0100779 0.0172472 -0.0408389 -0.000822761 0.00306123 -0.0172027 
0.047518 0.0448369 0.0517155 0.0886845 0.012096 -0.00134168 -0.00224428 0.0830069 -0.0114403 
-0.0495345 0.00224242 -0.0198542 -0.00974625 0.0311307 0.0324018 0.0883509 0.0472123 0.0675341 
0.0519267 0.0590989 0.044574 0.00379209 0.00567364 -0.00852214 -0.0279038 -0.0367516 -0.0521274 
-0.0104915 -0.0163032 -0.000280427 0.00366894 -0.00155849 0.0139159 -0.00580873 0.00249509 0.0234444 
0.04013 0.0145471 0.0235231 0.00101142 0.0190359 0.0482117 0.0715539 -0.00700021 -0.0050718 
-0.0204116 0.000416326 -0.003877 -0.0223729 0.117236 0.0846056 0.0346309 -0.00517624 0.00240058 
-0.00408475 -0.0309458 0.0605104 0.0569945 0.0287232 0.0264861 -0.0038616 0.001151 0.0341547 
0.00425649 -0.0109015 0.00117913 -0.00260493 -0.0116121 0.00158819 -0.00107789 -0.00436095 0.00328422 
-0.0499798 -0.0765009 -0.0241504 -0.000469303 0.00384011 -0.0624035 -0.074408 -0.00928356 -0.00299874 
0.000138389 -0.0228614 0.00851855 0.00131227 0.000323898 -0.017237 -0.0656641 -0.0624552 -0.0045036 
0.0328494 0.0192783 -0.00189413 -0.00241693 0.00328974 0.0592392 0.00858301 -0.003569 -0.000755869 
-0.000918272 0.00982543 0.0321093 -0.00123528 0.0312543 -0.0137496 -0.0438375 0.000627155 -0.00464053 
0.0873385 0.00163006 -0.00786401 -0.00292863 0.017517 0.00432 -0.000244604 0.0495318 0.0472439 
0.0345636 -0.0135759 -0.0127141 -0.0632407 -0.0092549 -0.00591786 0.00687276 0.0488055 -0.0351522 
-0.0308675 -0.0151741 -0.019481 0.0465283 0.0502122 0.049997 0.0950947 0.101491 0.0903427 
0.0245823 0.0151863 0.0915413 0.0877505 0.117768 -0.0470662 -0.00439189 -0.0103137 0.00296348 
0.00348121 0.019809 0.0407754 0.0500503 0.0550695 0.0106821 0.0118606 0.00397621 -0.0539803 
-0.0140777 -0.0135109 0.00317385 0.00303375 -6.90649e-06 0.0246125 0.0325193 0.0257101 0.051047 
-0.0376317 -0.00358513 -0.000816225 -0.00335696 -0.01098 -0.0181221 0.109986 0.059546 0.0319253 
-0.029007 -0.0330935 -0.0174736 -0.0119313 -0.0251468 -0.01439 0.0396453 0.00652004 0.0262393 
0.0123693 0.0383567 0.0524744 0.0533559 0.0552305 0.00205194 -0.0105375 -0.00218958 0.00305171 
-0.0135349 -0.00454778 -0.00239277 0.00490627 1.28164e-05 -0.00152684 0.00454333 0.000215069 -0.00132762 
0.00464468 0.00724575 -0.000598427 -0.0642827 -0.0770307 -0.0170837 0.00524316 -0.00473107 0.0106225 
0.00347199 -0.00939614 0.00522405 -0.0697955 -0.068214 -0.0441231 -0.0333903 -0.000630074 0.00142852 
-0.00495335 -0.01029 -0.00987517 -0.0124096 -0.0156379 -0.0134407 -0.0211731 0.0383054 -0.00321659 
0.0073832 0.0139105 -0.00459727 0.00345871 -0.00174015 -0.0114886 -0.00107412 -0.0688534 -0.0554822 
-0.0447141 -0.032869 -0.0327243 0.0315759 0.00668361 0.0252724 0.00015275 -0.000294222 0.00152371 
-0.00257137 -0.017479 -0.0170204 -0.0162505 -0.000927471 0.00327281 -0.00461856 0.0484911 0.040605 
0.0535479 0.0585046 -0.00713513 0.00264937 0.00210318 -0.00247348 0.030882 0.0241466 0.014499 
0.112346 0.0504695 0.0248998 0.11798 0.0845738 0.0698053 0.0572172 0.0730159 0.0566494 
0.0101769 0.00622094 0.0151409 0.00695754 -0.0114019 0.0358895 0.0407906 0.144608 0.150013 
0.030404 0.00926229 0.0314991 0.00729814 0.00851577 0.0318257 0.141055 -0.055975 -0.0108292 
-0.0146915 -0.0358043 -0.0599239 -0.0213679 -0.0234512 -0.00333069 -0.00325514 0.000324441 -0.000787873 
-0.000675454 -0.000780154 0.0115354 -0.0151846 0.00569853 0.0153232 0.0256898 0.0764997 0.0671502 
0.0602667 0.0751771 0.0813921 0.073436 0.0591321 0.0230034 0.0458006 0.00121411 -0.00114827 
-0.0103535 -0.00484518 -0.00293118 -0.0106432 0.00383167 -0.000380036 -0.00191323 -0.0117005 -0.0299008 
-0.0214088 -0.0297651 -0.00254235 0.00783193 -0.00145504 -0.0252328 0.0474286 0.0486242 0.0732919 
0.000644196 -0.0018651 0.00440595 0.00197149 -0.028319 0.00748551 0.0069803 0.0204122 0.0230318 
0.000343888 0.00341755 0.00203948 0.000490502 0.00871094 0.0208798 0.00150902 0.0139667 0.0184255 
-0.000554519 0.00696018 0.0797805 0.0649944 0.0577333 0.022023 -0.00897199 0.0030676 0.03431 
-0.00223957 0.00281613 0.00839637 0.0151507 -0.00381835 -0.00225994 0.101904 0.110934 0.0537827 
0.0410046 0.0388447 0.0473191 0.0509025 0.0553585 0.0548265 0.0247522 0.0137305 0.0243902 
-0.0124397 -0.0124224 -0.0103228 -0.00698145 -0.0546711 -0.0436961 -0.0312869 -0.0634525 -0.068715 
0.0186955 0.00771173 0.00698254 -0.00692391 -0.0133697 0.00172818 -0.00272397 -0.0168019 0.0119119 
0.06211 0.00946436 -0.0495474 -0.0536874 0.00126571 -0.00812132 -0.000895926 -0.0134929 -0.00964641 
0.0101167 0.00259372 0.0346597 0.108072 0.0680214 0.0543431 0.0350317 -0.00212339 0.0659285 
0.133633 0.0936873 0.140452 0.149657 0.139813 0.00751397 -0.0115897 -0.00734389 0.00837297 
-0.0139307 -0.0619727 -0.0670941 -0.0478292 0.00221798 -0.00573571 0.00288629 -0.00787366 -0.0239919 
-0.0188813 -0.0144672 0.000262831 0.0256204 0.0150789 0.00124609 1.01921e-05 -0.00200068 0.0346711 
0.0328122 0.0248588 0.00981774 0.0377285 0.0562807 0.0336629 0.0812617 0.0803255 0.0834715 
0.060276 0.0558846 0.0263229 0.0262777 0.0353197 0.00907277 0.00417398 0.0705644 0.0105092 
0.0197981 -0.00242621 0.0507925 0.0392855 -0.00697321 -0.00157069 -0.0133861 -0.0164851 -0.0305072 
-0.0456891 -0.0372757 -0.0425116 -0.0551587 -0.0702433 -0.00988184 -0.00523429 -0.0176653 -0.00104817 
-0.0118808 -0.00135835 -0.0107098 -0.000755636 -0.0016279 -7.67318e-05 -0.000274122 0.000676188 0.005607 
0.0240863 0.0309533 -0.00164365 -0.00600701 -0.0027291 0.0459782 0.0135483 0.00563314 -0.00524333 
-0.0112651 0.00979939 -0.00339387 0.0387764 0.0445875 0.0604398 0.0810028 0.0480707 0.0504667 
0.018394 -0.0580897 -0.00815463 -0.00675589 0.00695274 0.00116841 -0.013486 -0.00547524 -0.035087 
-0.0252517 0.000643554 0.00761334 -0.000150476 -0.00273266 -0.0142621 -0.00212049 -0.00529373 0.00400744 
-0.0169986 -0.0173419 0.0756193 0.057183 0.0710747 0.110095 0.134956 0.0927883 0.0606789 
0.0754691 0.0646118 0.0209135 0.0208605 0.0400464 0.0420302 0.0351113 0.0398615 -0.00944062 
-0.0156196 -0.018356 -0.0243609 -0.00680334 -0.0159508 -0.0194949 -0.0237847 -0.0504733 -0.0345829 
-0.0101484 -0.00194838 -0.00284464 -0.0225838 -0.013824 -0.00772825 -0.00232346 -0.0120739 -0.0107641 
-0.0102107 -0.00352831 0.0414055 0.00880579 0.0603001 0.0528804 0.0345066 0.0439918 0.0751729 
0.0255327 -0.00081032 0.0457621 0.0404437 0.035086 0.067426 0.06373 0.0117543 0.00870196 
-0.00433643 -0.00715822 -0.00279004 -0.00620488 -0.000350961 -0.00109002 0.00172052 -0.0618279 -0.0518086 
-0.00857497 -0.00614889 0.00329083 -0.0064962 -0.0151464 0.000168651 -0.00527703 0.00432252 -0.0260842 
-0.0219739 -0.0276657 -0.0102761 -0.002839 0.028792 -0.016538 0.00976564 0.00409564 0.092397 
0.0637593 0.0263348 0.138442 0.00724728 0.00690953 -0.0154146 -0.0469392 -0.039475 0.0195395 
-0.00407411 0.00347224 -0.0368267 -0.020661 -0.0254546 0.044048 0.0984833 0.0904892 0.00803435 
-0.0058682 0.0342045 0.0469207 0.0777345 0.0743 0.0582475 0.0465537 -0.011537 -0.051666 
-0.0551573 0.00377735 -0.00144869 -0.00558539 -0.00357408 0.00257746 0.0376449 0.0419324 -0.0296527 
-0.0219009 -0.0206223 -0.0196569 0.0486651 0.0492502 0.0182833 0.0223742 0.0219797 0.0923522 
0.0844749 0.0957271 0.090228 0.0837137 0.117608 -0.049742 -0.0114876 0.00695484 0.0123791 
0.0226558 0.0382977 0.0881396 0.027885 0.0519216 0.0470339 0.0142346 -0.0475229 -0.0540975 
-0.0146248 0.00185372 0.0063845 0.0379472 0.0373277 0.050644 0.0554806 -0.0278774 -0.00653152 
-0.00472712 -0.0059005 -0.0187592 -0.0183908 -0.0200251 0.0682437 0.0311726 0.0312576 -0.0281772 
-0.0295515 -0.0254496 -0.0194208 0.0348062 0.0575597 0.059741 0.053344 0.112312 0.107694 
0.108923 0.0255108 0.0175037 0.0219892 0.040076 0.0399816 0.0418071 0.0378526 0.054631 
0.0538132 0.0398429 0.0439514 0.00498572 0.000377937 -0.00827106 0.00531093 -0.00186912 0.00431665 
-0.000139197 -0.000771811 0.00344646 -0.00489506 -0.00358387 0.00515643 0.00383854 0.000625032 0.00140029 
-0.000558562 0.000270858 0.00449854 0.000388284 -0.0725611 -0.0730385 -0.0131428 -0.00187409 -0.00688829 
0.000723967 0.00523128 -0.00119269 0.00599585 -0.00197824 0.045937 0.0389484 -0.000134003 0.000928511 
-0.0023911 -0.0121168 -0.0134863 -0.0152815 -0.0164473 0.0335853 0.0409309 0.000585832 0.00623181 
0.00922544 -4.15078e-05 0.00425011 0.0600605 0.0774492 0.03471 0.00166946 0.00231375 -0.00249005 
-0.0021633 -0.0681937 -0.0672317 -0.068619 -0.051135 -0.0458117 -0.0509858 -0.0337089 0.0383181 
0.0179385 0.0367569 0.000859209 -0.00223512 0.000592934 -0.00297179 -0.00547481 -0.0107657 -0.00137355 
-0.0271128 0.0207091 -0.000221703 -0.00207794 0.00056416 -0.00410413 -0.00106897 -0.00721355 -0.00331799 
-0.000220613 0.0235988 0.0478829 0.01508 0.110699 0.0997201 0.106925 0.0425042 0.0816493 
0.0449095 0.0493408 0.0536966 0.06756 0.00916754 0.00467815 0.0120032 0.00889318 0.147618 
0.109543 0.102245 0.0317033 0.0317494 0.147513 0.144451 -0.0476998 -0.0168941 -0.0591051 
-0.0265588 -0.00281043 -0.000639437 0.000168661 0.0289175 0.0275239 0.00142808 0.0212288 0.0187601 
0.0719651 0.0295112 0.0284533 -0.00343189 -0.0045785 -0.00900729 -0.00377147 0.00406716 0.0037767 
-0.00447656 0.00634608 -0.00145188 -0.0052288 0.00196503 -0.000855025 -0.00323125 -0.00381623 -0.011072 
-0.0282099 -0.0343383 -0.0319141 -0.0672146 -0.0622143 0.00111219 0.00673567 0.0094234 -0.00159258 
0.00215633 -0.0270072 0.0182392 0.0491859 0.0562049 0.0987667 0.0720171 0.082359 0.0899727 
0.00489936 0.00320426 0.00665463 -0.00213312 0.00229519 -0.00256395 -0.0373421 0.0216272 0.0236763 
-0.000174665 0.000829208 0.0014522 0.0161512 0.0143001 0.00446775 0.00857738 0.0065521 -0.002184 
-0.0031852 0.046482 0.00513031 0.00254823 0.0392305 -0.00372347 0.000922805 -0.00299322 0.00172357 
0.0677608 0.0641302 0.106378 0.0554024 0.0516345 0.0442231 0.0484284 0.0510749 0.065218 
0.0695947 0.0631652 0.052582 0.0290476 0.0190357 0.024196 -0.00845245 -0.012105 -0.0457649 
-0.0337004 -0.0202041 -0.0258704 -0.0686208 -0.0711079 -0.075762 -0.049018 0.0138233 0.00263322 
0.00259216 -0.00105753 -0.0152493 -0.0131403 -0.0120825 -0.00809154 -0.00466938 -0.00673607 0.0117761 
0.00905916 0.014514 0.0239812 0.0180311 0.0187303 0.0284323 0.0224838 0.0637482 0.0180522 
0.0136343 -0.0503025 -0.0454504 -0.0477326 -0.0430366 -0.00812325 0.000236721 0.00664851 -0.0118442 
-0.0045252 -0.00482544 0.00221999 -0.00668994 0.00104931 -0.0123898 -0.0169376 -0.0158534 -0.0186692 
-0.0250355 -0.0225418 0.0441983 0.0456205 0.0117706 0.00563041 0.00917685 0.0360696 0.0315251 
0.0318983 0.0216151 0.102579 0.0938474 0.066784 0.074143 0.105766 0.068138 0.0724821 
0.0674529 0.0361232 0.0438298 0.0129543 0.0178173 0.0111615 0.00216473 0.00170586 -0.00160809 
0.018648 0.00123229 -0.0019205 0.117307 0.0858031 0.0781781 0.0744625 0.0817156 0.0724114 
0.0765705 0.132046 0.122744 0.108343 0.115111 0.0783716 0.0779215 0.137807 -0.00248386 
-0.0115141 -0.0200048 -0.0115724 -0.00167135 -0.00139944 -0.0127709 -0.0484927 -0.0501485 -0.065258 
-0.0288534 -0.059788 0.00234995 -0.00137629 0.00271751 -0.0192894 -0.0171794 -0.022344 -0.0197905 
-0.0120217 -0.0110932 -0.0086753 0.00478884 0.00277375 -0.000152062 -0.000665119 0.0013699 -0.00456781 
0.0250631 0.00754719 -0.000832854 -0.00154274 -0.0044494 0.0196297 -0.000367545 -0.00434227 0.000727883 
-0.00313968 0.0307478 0.0256953 0.0185393 0.0145978 0.0183984 0.0406722 0.0410381 0.0812282 
0.0803948 0.0796634 0.0846149 0.0807306 0.0851445 0.0871757 0.0845439 0.0500039 0.0520338 
0.0407279 0.0119171 0.0168179 0.00618781 0.0130219 0.0077334 0.0715492 0.0691384 0.0646336 
0.0694961 0.0577847 0.060021 0.0574578 0.0216817 0.00608922 0.000527718 0.00962698 0.00718872 
0.000689195 -0.00248044 0.0528484 0.0497796 0.0428727 0.0354677 0.0282256 0.0386782 0.0344985 
0.00877483 0.0026053 -0.000872284 0.00205089 -0.00248761 -0.00551165 -0.0113232 -0.00511817 -0.0110247 
-0.0312 -0.022532 -0.0403529 -0.0492497 -0.0473352 -0.0493042 -0.0539233 -0.0637324 -0.0694262 
-0.0315727 -0.0252603 -0.0642202 -0.0661249 -0.0125968 -0.0154055 -0.00658267 -0.0108171 -0.0124888 
-0.0206148 0.00940825 0.0012025 0.00290054 0.00011421 -0.00101737 -0.000396853 0.00041804 0.00108291 
-0.00368353 -0.000499402 0.00185102 0.000692936 -0.00294168 0.0123846 0.0189474 0.0293767 0.0185819 
-0.00601806 0.0013672 -0.000412385 0.000456037 0.0160929 0.0365239 0.0284308 0.0267015 0.0283918 
0.0589733 -0.00222248 0.00755499 0.0111798 -0.00500927 0.00531489 0.0255333 0.00771184 0.0828105 
0.0815769 0.0500745 0.0437483 0.0758308 0.0549495 0.0565383 0.0665017 0.0411299 0.0352497 
0.0317303 0.0262194 0.0248183 0.0346721 0.0258082 0.0214192 0.0197843 -0.0641399 -0.0441981 
-0.0381338 -0.0141763 -0.00776585 0.000255825 -0.00705214 -0.00609842 0.00109875 0.00203428 -0.00944253 
-0.00211603 -0.0564877 -0.0245535 -0.0246502 -0.0128831 -0.0171556 -0.0303048 -0.0213311 -1.71656e-05 
-0.00209433 0.00241346 0.00599045 0.00722483 0.00123424 -0.00122879 -0.000193514 -0.00200023 -0.00603721 
-0.00720138 -0.0187447 -0.00305318 0.00201356 -0.00462535 0.00106695 -0.00591761 -0.0016613 -0.00261589 
-0.0226724 -0.0223234 -0.0172182 -0.0202323 0.0629554 0.0703055 0.0592961 0.0802037 0.11401 
0.113814 0.133708 0.10795 0.0808809 0.0904762 0.0915188 0.100841 0.0988339 0.0503696 
0.0349882 0.0295931 0.0310827 -0.0151001 -0.017116 -0.0215332 -0.0184983 -0.00944733 -0.0140349 
-0.0311652 -0.0329016 -0.032859 -0.043333 -0.0369565 -0.0428103 0.0027916 -0.00782229 -0.0119707 
0.00378353 -0.00371777 0.000102983 -0.00497813 -0.000717202 -0.0174548 -0.0139628 -0.00924998 -0.0093477 
-0.00384638 0.00101926 -0.00396648 0.000968776 -0.0298551 -0.0181976 -0.011499 -0.0449827 -0.0364412 
-0.0152328 -0.0108364 0.0543503 0.0223513 0.0293349 0.0169359 0.0113266 0.00910911 0.0145204 
0.0104972 0.0210044 0.0404752 0.0606909 0.0571832 0.0582178 0.0569371 0.0534678 0.0390846 
0.0394568 0.0834327 0.0786626 0.0809608 0.0690568 0.0503079 0.0475232 0.0341752 0.134259 
0.0764524 0.133292 0.140512 0.137813 0.02778 0.0295931 0.0329102 0.0259954 0.00245506 
0.00400718 -0.00220728 -0.00551584 -0.0115024 0.00182355 -0.00366448 0.000311797 0.0171277 0.046347 
0.0429632 0.0346395 0.0324918 0.0299812 0.0382565 0.0355612 0.0361017 0.0330637 0.0640518 
0.0663903 0.060818 0.0360077 0.0763415 0.07577 0.069899 0.0681981 0.0607677 0.0452141 
0.0435721 0.0367157 0.0724701 0.0693321 0.0737235 0.0834422 0.077403 0.075802 0.0717687 
0.026759 0.0274885 0.0273983 0.0623918 0.0525386 0.0175287 0.0223058 0.00472416 0.00886588 
0.0033571 -0.00118627 -0.000259017 -0.0143235 -0.0121521 -0.00990043 0.00486064 0.00460664 0.00228598 
0.00627787 0.00486812 -0.000233753 -0.0021454 0.000362398 3.13387e-07 -0.00240944 -0.00514103 -0.0027616 
-0.0103964 -0.00866783 -0.00800525 -0.0117395 -0.000613218 -0.00210352 -0.00268333 -0.00433451 0.0035869 
0.00278791 0.000666229 -0.00027421 0.00237213 0.000608856 -0.0013024 -0.000251727 -0.00141845 0.00847425 
0.00600618 0.00956981 0.00808499 -0.000630392 0.000682116 0.000474712 -0.00107936 -0.00266513 -0.00543155 
-0.00287783 -0.00144904 -0.000278241 0.000975077 0.00194559 0.0057511 -0.0105258 -0.0101615 0.00510986 
0.00710256 0.00398978 -0.0558218 -0.0608998 -0.049737 -0.0577676 -0.0439223 -0.0470593 -0.0737136 
-0.0176743 -0.0140785 -0.0207726 -0.0309068 0.0226024 0.0205225 0.00155997 -0.00740242 -0.00962011 
-0.00257888 0.00907131 0.00712359 0.0360919 0.0433621 0.0350947 0.0108899 0.00450182 -0.00287881 
-0.0170204 -0.0250972 -0.0658048 -0.0626414 -0.0588923 -0.0536042 -0.0775148 -0.0718361 -0.0445387 
-0.0387766 -0.0215805 0.0458801 0.0323548 0.0177408 0.0117536 0.0705847 0.0541807 0.0536667 
0.0181194 -0.00929398 -0.0077422 -0.00848909 -0.00157915 -0.00197473 -0.0032123 -0.00387163 -0.00455205 
-0.00290666 -0.00529411 -0.00719181 -0.0171123 0.00192606 -5.00231e-05 -0.00479942 0.00162566 0.005591 
-0.00106159 -0.0224475 -0.0227792 0.0357525 0.0766403 0.0695198 0.00338397 0.00816054 0.0035219 
0.0084191 0.0330611 -0.0152035 -0.0164067 -0.0139746 0.00245436 -0.00274034 -0.00389421 0.000110029 
0.00657834 0.00533127 0.0809113 0.0813953 0.0760221 0.0844965 0.0971467 0.0653693 0.0605748 
0.0606474 0.0186978 0.0160873 -0.000809655 -0.00461565 -0.00320949 0.00168059 -0.0162574 -0.0660878 
-0.0676775 -0.0617487 -0.0592687 -0.0625322 -0.0640822 -0.06499 -0.0635322 -0.0575421 -0.0607365 
-0.056805 -0.0546684 -0.054423 -0.0115272 -0.0042647 -0.0217018 -0.0173296 -0.00730274 -0.0143492 
-0.0227988 -0.00275388 0.00411572 0.00225897 -0.00599835 -0.00420427 -0.00854217 -0.00280101 0.0329919 
0.0323664 0.0559088 0.0620848 0.0184835 0.0118924 0.00765884 0.00460675 0.0646944 0.0618292 
0.0117187 0.0172208 -0.000767058 -0.00590175 0.00253167 0.00129598 0.000777386 -0.00362846 0.00203373 
-0.00130113 0.00830982 0.0102573 -0.0136741 -0.01631 -0.0226341 -0.0211519 -0.0246154 -0.00584541 
-0.0133688 -0.0172684 0.00839754 0.00124463 0.000227943 -0.00149339 -0.0039268 -0.00430279 0.000501216 
0.00021027 -0.0195615 -0.0287374 -0.0292194 0.0480652 0.0541692 0.0518124 0.0514772 0.0256805 
0.0561593 0.0358067 0.0586914 0.0591819 0.0598664 0.0201033 0.0200036 0.00171114 0.00474727 
-0.0180389 -0.00335791 -0.000496424 -0.00701055 -0.00067923 -0.00101835 0.00153171 0.00147015 0.0104277 
-0.0205667 -0.0207957 -0.00166743 -0.000242866 0.00185039 0.00983658 0.0123889 0.00687835 0.0305851 
0.0363752 0.040791 0.0517125 0.0515288 0.0224667 0.00558774 0.0075193 0.060764 0.128213 
0.129448 0.0225361 0.0465401 0.107563 0.0997584 0.095589 0.103014 0.104813 0.136445 
0.0761859 0.0632809 0.0659454 0.0539828 0.0591134 0.0462842 0.0297145 0.0331956 0.0262733 
0.0244216 0.0532591 0.0575434 0.0414245 0.0238479 0.0183894 -3.20077e-05 0.00154635 0.00173052 
-0.00556431 -0.0064755 -0.00578318 0.150864 0.0312792 -0.0148716 -0.0156612 -0.00288227 -0.00373871 
-0.014783 -0.0121295 -0.028407 -0.0362119 -0.0475274 -0.0457957 -0.0419831 -0.0412203 0.0132299 
0.0150273 0.0183946 0.0200945 0.020204 0.0178339 0.00818206 0.0119399 0.00779334 0.00255794 
0.00104185 0.00598988 -0.000738997 -0.0044461 0.00201736 -0.00322877 -0.0141272 0.0193066 0.0239816 
0.0804872 0.0774087 0.0733757 0.0738777 0.07387 0.0562909 0.0513172 0.0563368 0.0551118 
0.0477794 -0.00491425 0.00320343 -0.0039884 -0.0374262 -0.0356247 -0.0125371 -0.0155553 -0.0192633 
-0.0298765 -0.031288 -0.035796 -0.0316145 -0.0341225 -0.0128118 -0.0161441 -0.0128005 -0.00567878 
-0.00800357 -0.00271641 0.037623 0.0351004 0.0395978 0.0433033 0.0483545 0.100352 0.0845868 
0.0819366 0.0920872 0.0173788 0.0162711 0.0120799 0.0105054 0.00283221 -0.000480003 -0.0010293 
0.000838979 0.00452805 0.00302232 0.00194803 0.00313814 -6.5416e-05 0.000547916 -0.00818038 -0.000473013 
0.000181861 -0.00701023 -0.00856658 -0.0011584 0.00441751 -0.00448862 0.0032167 0.0222657 0.0192094 
0.0157774 0.0235386 0.0618355 0.0590701 0.0352005 0.0438429 -0.00160044 0.000426495 0.00601055 
0.0245287 0.0351762 0.0293094 0.00113283 -0.00373106 -0.00514483 -0.0013599 0.00387461 0.0186671 
0.0179673 0.0703859 0.0591189 0.0630042 0.0527062 0.0623811 0.0555455 0.030051 -0.013135 
-0.0124727 -0.00861872 -0.00956418 -0.00844878 -0.0510145 -0.0367643 -0.0697407 0.0032062 0.00283299 
-0.00561719 -0.00544078 -0.00895787 -0.0113958 -0.00790317 9.35578e-07 -0.00242348 -0.010071 0.00422703 
0.0315095 0.0254242 -0.0468136 -0.0375025 -0.0188451 -0.0058965 -0.0149358 -0.0161105 -0.0188583 
-0.0217401 0.0152356 0.0287355 0.0893746 0.104863 0.0848055 0.0789717 0.0729386 0.0253197 