# vtk DataFile Version 4.0
vtk output
ASCII
DATASET POLYDATA
POINTS 2632 float
11.1719 25.8281 -11.6484 11.1719 25.3984 -11.2188 11.6016 25.8281 -11.2188 
10.3125 25.8281 -11.6484 10.3125 25.3984 -11.2188 9.45312 25.8281 -11.6484 
9.45312 25.3984 -11.2188 9.02344 25.8281 -11.2188 11.1719 26.6875 -11.6484 
11.6016 26.6875 -11.2188 10.3125 26.6875 -11.6484 9.45312 26.6875 -11.6484 
9.02344 26.6875 -11.2188 11.1719 27.5469 -11.6484 11.6016 27.5469 -11.2188 
10.3125 27.5469 -11.6484 9.45312 27.5469 -11.6484 8.59375 27.1172 -11.2188 
8.59375 27.5469 -11.6484 8.16406 27.5469 -11.2188 11.1719 28.4062 -11.6484 
11.6016 28.4062 -11.2188 10.3125 28.4062 -11.6484 9.45312 28.4062 -11.6484 
8.59375 28.4062 -11.6484 8.16406 28.4062 -11.2188 11.1719 29.2656 -11.6484 
11.6016 29.2656 -11.2188 10.3125 29.2656 -11.6484 9.45312 29.2656 -11.6484 
8.59375 29.2656 -11.6484 8.16406 29.2656 -11.2188 11.1719 29.6953 -11.2188 
10.7422 30.125 -11.2188 10.3125 30.125 -11.6484 9.45312 30.125 -11.6484 
8.59375 30.125 -11.6484 8.16406 30.125 -11.2188 10.3125 30.9844 -11.6484 
10.7422 30.9844 -11.2188 9.45312 30.9844 -11.6484 8.59375 30.9844 -11.6484 
8.16406 30.9844 -11.2188 10.3125 31.4141 -11.2188 9.45312 31.4141 -11.2188 
8.59375 31.4141 -11.2188 11.1719 22.3906 -10.7891 11.1719 21.9609 -10.3594 
11.6016 22.3906 -10.3594 10.3125 22.3906 -10.7891 10.3125 21.9609 -10.3594 
9.45312 22.3906 -10.7891 9.45312 21.9609 -10.3594 9.02344 22.3906 -10.3594 
11.1719 23.25 -10.7891 11.6016 23.25 -10.3594 10.3125 23.25 -10.7891 
9.45312 23.25 -10.7891 9.02344 23.25 -10.3594 11.1719 24.1094 -10.7891 
11.6016 24.1094 -10.3594 10.3125 24.1094 -10.7891 9.45312 24.1094 -10.7891 
9.02344 24.1094 -10.3594 11.1719 24.9687 -10.7891 11.6016 24.9687 -10.3594 
10.3125 24.9687 -10.7891 9.45312 24.9687 -10.7891 9.02344 24.9687 -10.3594 
11.6016 25.8281 -10.3594 9.02344 25.8281 -10.3594 11.6016 26.6875 -10.3594 
9.02344 26.6875 -10.3594 11.6016 27.5469 -10.3594 8.59375 27.1172 -10.3594 
8.16406 27.5469 -10.3594 12.0312 28.4062 -10.7891 12.0312 27.9766 -10.3594 
12.4609 28.4062 -10.3594 8.16406 28.4062 -10.3594 12.0312 29.2656 -10.7891 
12.4609 29.2656 -10.3594 8.16406 29.2656 -10.3594 12.0312 30.125 -10.7891 
12.4609 30.125 -10.3594 11.1719 30.125 -10.7891 8.16406 30.125 -10.3594 
12.0312 30.9844 -10.7891 12.4609 30.9844 -10.3594 11.1719 30.9844 -10.7891 
8.16406 30.9844 -10.3594 12.0312 31.4141 -10.3594 11.6016 31.8437 -10.3594 
11.1719 31.8437 -10.7891 10.3125 31.8437 -10.7891 9.45312 31.8437 -10.7891 
8.59375 31.8437 -10.7891 8.16406 31.8437 -10.3594 11.1719 32.2734 -10.3594 
10.7422 32.7031 -10.3594 10.3125 32.7031 -10.7891 9.45312 32.7031 -10.7891 
8.59375 32.7031 -10.7891 8.16406 32.7031 -10.3594 10.3125 33.1328 -10.3594 
9.45312 33.1328 -10.3594 8.59375 33.1328 -10.3594 12.0312 20.6719 -9.92969 
12.0312 20.2422 -9.5 12.4609 20.6719 -9.5 11.1719 20.6719 -9.92969 
11.1719 20.2422 -9.5 10.3125 20.6719 -9.92969 10.3125 20.2422 -9.5 
9.88281 20.6719 -9.5 12.0312 21.5312 -9.92969 12.4609 21.5312 -9.5 
11.1719 21.5312 -9.92969 10.3125 21.5312 -9.92969 9.45312 21.1016 -9.5 
9.45312 21.5312 -9.92969 9.02344 21.5312 -9.5 12.0312 22.3906 -9.92969 
12.4609 22.3906 -9.5 9.02344 22.3906 -9.5 12.0312 23.25 -9.92969 
12.4609 23.25 -9.5 9.02344 23.25 -9.5 12.0312 24.1094 -9.92969 
12.4609 24.1094 -9.5 8.59375 23.6797 -9.5 8.59375 24.1094 -9.92969 
8.16406 24.1094 -9.5 12.0312 24.9687 -9.92969 12.4609 24.9687 -9.5 
8.59375 24.9687 -9.92969 8.16406 24.9687 -9.5 12.0312 25.8281 -9.92969 
12.4609 25.8281 -9.5 8.59375 25.8281 -9.92969 8.16406 25.8281 -9.5 
12.8906 26.6875 -9.92969 12.8906 26.2578 -9.5 13.3203 26.6875 -9.5 
12.0312 26.6875 -9.92969 8.59375 26.6875 -9.92969 8.16406 26.6875 -9.5 
12.8906 27.5469 -9.92969 13.3203 27.5469 -9.5 12.0312 27.5469 -9.92969 
8.16406 27.5469 -9.5 12.8906 28.4062 -9.92969 13.3203 28.4062 -9.5 
8.16406 28.4062 -9.5 12.8906 29.2656 -9.92969 13.3203 29.2656 -9.5 
8.16406 29.2656 -9.5 12.8906 30.125 -9.92969 13.3203 30.125 -9.5 
7.73438 29.6953 -9.5 7.73438 30.125 -9.92969 7.30469 30.125 -9.5 
12.8906 30.9844 -9.92969 13.3203 30.9844 -9.5 7.73438 30.9844 -9.92969 
7.30469 30.9844 -9.5 12.8906 31.4141 -9.5 12.0312 31.8437 -9.92969 
12.4609 31.8437 -9.5 7.73438 31.8437 -9.92969 7.30469 31.8437 -9.5 
12.0312 32.2734 -9.5 11.1719 32.7031 -9.92969 11.6016 32.7031 -9.5 
7.73438 32.7031 -9.92969 7.30469 32.7031 -9.5 11.1719 33.1328 -9.5 
10.3125 33.1328 -9.5 9.45312 33.1328 -9.5 8.59375 33.1328 -9.5 
7.73438 33.1328 -9.5 12.8906 19.8125 -9.07032 12.8906 19.3828 -8.64063 
13.3203 19.8125 -8.64063 12.0312 19.8125 -9.07032 12.0312 19.3828 -8.64063 
11.1719 19.8125 -9.07032 11.1719 19.3828 -8.64063 10.3125 19.8125 -9.07032 
10.3125 19.3828 -8.64063 9.88281 19.8125 -8.64063 12.8906 20.6719 -9.07032 
13.3203 20.6719 -8.64063 9.88281 20.6719 -8.64063 12.8906 21.5312 -9.07032 
13.3203 21.5312 -8.64063 9.45312 21.1016 -8.64063 9.02344 21.5312 -8.64063 
12.8906 22.3906 -9.07032 13.3203 22.3906 -8.64063 9.02344 22.3906 -8.64063 
12.8906 23.25 -9.07032 13.3203 23.25 -8.64063 9.02344 23.25 -8.64063 
12.8906 24.1094 -9.07032 13.3203 24.1094 -8.64063 8.59375 23.6797 -8.64063 
8.16406 24.1094 -8.64063 12.8906 24.9687 -9.07032 13.3203 24.9687 -8.64063 
8.16406 24.9687 -8.64063 12.8906 25.8281 -9.07032 13.3203 25.8281 -8.64063 
8.16406 25.8281 -8.64063 13.75 26.6875 -9.07032 13.75 26.2578 -8.64063 
14.1797 26.6875 -8.64063 8.16406 26.6875 -8.64063 14.6094 27.5469 -9.07032 
14.6094 27.1172 -8.64063 15.0391 27.5469 -8.64063 13.75 27.5469 -9.07032 
8.16406 27.5469 -8.64063 14.6094 28.4062 -9.07032 15.0391 28.4062 -8.64063 
13.75 28.4062 -9.07032 8.16406 28.4062 -8.64063 14.6094 29.2656 -9.07032 
15.0391 29.2656 -8.64063 13.75 29.2656 -9.07032 8.16406 29.2656 -8.64063 
14.6094 30.125 -9.07032 15.0391 30.125 -8.64063 13.75 30.125 -9.07032 
7.73438 29.6953 -8.64063 7.30469 30.125 -8.64063 14.6094 30.9844 -9.07032 
15.0391 30.9844 -8.64063 13.75 30.9844 -9.07032 7.30469 30.9844 -8.64063 
14.6094 31.4141 -8.64063 14.1797 31.8437 -8.64063 13.75 31.8437 -9.07032 
12.8906 31.8437 -9.07032 7.30469 31.8437 -8.64063 13.75 32.2734 -8.64063 
13.3203 32.7031 -8.64063 12.8906 32.7031 -9.07032 12.0312 32.7031 -9.07032 
7.30469 32.7031 -8.64063 12.8906 33.1328 -8.64063 12.0312 33.1328 -8.64063 
11.1719 33.5625 -9.07032 11.6016 33.5625 -8.64063 10.3125 33.5625 -9.07032 
9.45312 33.5625 -9.07032 8.59375 33.5625 -9.07032 7.73438 33.5625 -9.07032 
7.30469 33.5625 -8.64063 11.1719 33.9922 -8.64063 10.3125 33.9922 -8.64063 
9.45312 33.9922 -8.64063 8.59375 33.9922 -8.64063 7.73438 33.9922 -8.64063 
12.8906 17.2344 -8.21094 12.8906 16.8047 -7.78125 13.3203 17.2344 -7.78125 
12.0312 17.2344 -8.21094 12.0312 16.8047 -7.78125 11.1719 17.2344 -8.21094 
11.1719 16.8047 -7.78125 10.7422 17.2344 -7.78125 13.75 18.0937 -8.21094 
13.75 17.6641 -7.78125 14.1797 18.0937 -7.78125 12.8906 18.0937 -8.21094 
12.0312 18.0937 -8.21094 11.1719 18.0937 -8.21094 10.7422 18.0937 -7.78125 
13.75 18.9531 -8.21094 14.1797 18.9531 -7.78125 12.8906 18.9531 -8.21094 
12.0312 18.9531 -8.21094 11.1719 18.9531 -8.21094 10.3125 18.5234 -7.78125 
10.3125 18.9531 -8.21094 9.88281 18.9531 -7.78125 13.75 19.8125 -8.21094 
14.1797 19.8125 -7.78125 9.88281 19.8125 -7.78125 13.75 20.6719 -8.21094 
14.1797 20.6719 -7.78125 9.88281 20.6719 -7.78125 13.75 21.5312 -8.21094 
14.1797 21.5312 -7.78125 9.45312 21.1016 -7.78125 9.02344 21.5312 -7.78125 
13.75 22.3906 -8.21094 14.1797 22.3906 -7.78125 9.02344 22.3906 -7.78125 
13.75 23.25 -8.21094 14.1797 23.25 -7.78125 9.02344 23.25 -7.78125 
13.75 24.1094 -8.21094 14.1797 24.1094 -7.78125 8.59375 23.6797 -7.78125 
8.16406 24.1094 -7.78125 14.6094 24.9687 -8.21094 14.6094 24.5391 -7.78125 
15.0391 24.9687 -7.78125 13.75 24.9687 -8.21094 8.16406 24.9687 -7.78125 
15.4688 25.8281 -8.21094 15.4688 25.3984 -7.78125 15.8984 25.8281 -7.78125 
14.6094 25.8281 -8.21094 13.75 25.8281 -8.21094 8.16406 25.8281 -7.78125 
16.3281 26.6875 -8.21094 16.3281 26.2578 -7.78125 16.7578 26.6875 -7.78125 
15.4688 26.6875 -8.21094 14.6094 26.6875 -8.21094 8.16406 26.6875 -7.78125 
16.3281 27.5469 -8.21094 16.7578 27.5469 -7.78125 15.4688 27.5469 -8.21094 
8.16406 27.5469 -7.78125 16.3281 28.4062 -8.21094 16.7578 28.4062 -7.78125 
15.4688 28.4062 -8.21094 8.59375 28.4062 -8.21094 9.02344 28.4062 -7.78125 
8.59375 27.9766 -7.78125 16.3281 29.2656 -8.21094 16.7578 29.2656 -7.78125 
15.4688 29.2656 -8.21094 8.59375 29.2656 -8.21094 9.02344 29.2656 -7.78125 
16.3281 30.125 -8.21094 16.7578 30.125 -7.78125 15.4688 30.125 -8.21094 
8.59375 29.6953 -7.78125 7.73438 29.6953 -7.78125 7.30469 30.125 -7.78125 
16.3281 30.9844 -8.21094 16.7578 30.9844 -7.78125 15.4688 30.9844 -8.21094 
7.30469 30.9844 -7.78125 16.3281 31.4141 -7.78125 15.8984 31.8437 -7.78125 
15.4688 31.8437 -8.21094 14.6094 31.8437 -8.21094 7.30469 31.8437 -7.78125 
15.4688 32.2734 -7.78125 14.6094 32.2734 -7.78125 13.75 32.7031 -8.21094 
14.1797 32.7031 -7.78125 7.30469 32.7031 -7.78125 13.75 33.1328 -7.78125 
12.8906 33.1328 -7.78125 12.0312 33.5625 -8.21094 12.4609 33.5625 -7.78125 
7.30469 33.5625 -7.78125 12.0312 33.9922 -7.78125 11.1719 33.9922 -7.78125 
10.3125 33.9922 -7.78125 9.45312 33.9922 -7.78125 8.59375 33.9922 -7.78125 
7.73438 33.9922 -7.78125 14.6094 12.9375 -7.35157 14.6094 12.5078 -6.92188 
15.0391 12.9375 -6.92188 13.75 12.9375 -7.35157 13.75 12.5078 -6.92188 
12.8906 12.9375 -7.35157 12.8906 12.5078 -6.92188 12.4609 12.9375 -6.92188 
14.6094 13.7969 -7.35157 15.0391 13.7969 -6.92188 13.75 13.7969 -7.35157 
12.8906 13.7969 -7.35157 12.4609 13.7969 -6.92188 14.6094 14.6562 -7.35157 
15.0391 14.6562 -6.92188 13.75 14.6562 -7.35157 12.8906 14.6562 -7.35157 
12.0312 14.2266 -6.92188 12.0312 14.6562 -7.35157 11.6016 14.6562 -6.92188 
14.6094 15.5156 -7.35157 15.0391 15.5156 -6.92188 13.75 15.5156 -7.35157 
12.8906 15.5156 -7.35157 12.0312 15.5156 -7.35157 11.6016 15.5156 -6.92188 
14.6094 16.375 -7.35157 15.0391 16.375 -6.92188 13.75 16.375 -7.35157 
12.8906 16.375 -7.35157 12.0312 16.375 -7.35157 11.6016 16.375 -6.92188 
[...]
POINT_DATA 2632
SCALARS scalars float
LOOKUP_TABLE default
500 500 500 500 500 500 500 500 500 
500 500 500 500 500 500 500 500 500 
500 500 500 500 500 500 500 500 500 
500 500 500 500 500 500 500 500 500 
500 500 500 500 500 500 500 500 500 
500 500 500 500 500 500 500 500 500 
500 500 500 500 500 500 500 500 500 
500 500 500 500 500 500 500 500 500 
500 500 500 500 500 500 500 500 500 
500 500 500 500 500 500 500 500 500 
500 500 500 500 500 500 500 500 500 
500 500 500 500 500 500 500 500 500 
500 500 500 500 500 500 500 500 500 
500 500 500 500 500 500 500 500 500 
500 500 500 500 500 500 500 500 500 
500 500 500 500 500 500 500 500 500 
500 500 500 500 500 500 500 500 500 
500 500 500 500 500 500 500 500 500 
500 500 500 500 500 500 500 500 500 
500 500 500 500 500 500 500 500 500 
500 500 500 500 500 500 500 500 500 
500 500 500 500 500 500 500 500 500 
500 500 500 500 500 500 500 500 500 
500 500 500 500 500 500 500 500 500 
500 500 500 500 500 500 500 500 500 
500 500 500 500 500 500 500 500 500 
500 500 500 500 500 500 500 500 500 
500 500 500 500 500 500 500 500 500 
500 500 500 500 500 500 500 500 500 
500 500 500 500 500 500 500 500 500 
500 500 500 500 500 500 500 500 500 
500 500 500 500 500 500 500 500 500 
500 500 500 500 500 500 500 500 500 
500 500 500 500 500 500 500 500 500 
500 500 500 500 500 500 500 500 500 
500 500 500 500 500 500 500 500 500 
500 500 500 500 500 500 500 500 500 
500 500 500 500 500 500 500 500 500 
500 500 500 500 500 500 500 500 500 
500 500 500 500 500 500 500 500 500 
500 500 500 500 500 500 500 500 500 
500 500 500 500 500 500 500 500 500 
500 500 500 500 500 500 500 500 500 
500 500 500 500 500 500 500 500 500 
500 500 500 500 500 500 500 500 500 
500 500 500 500 500 500 500 500 500 
500 500 500 500 500 500 500 500 500 
500 500 500 500 500 500 500 500 500 
500 500 500 500 500 500 500 500 500 
500 500 500 500 500 500 500 500 500 
500 500 500 500 500 500 500 500 500 
500 500 500 500 500 500 500 500 500 
500 500 500 500 500 500 500 500 500 
500 500 500 500 500 500 500 500 500 
500 500 500 500 500 500 500 500 500 
500 500 500 500 500 500 500 500 500 
500 500 500 500 500 500 500 500 500 
500 500 500 500 500 500 500 500 500 
500 500 500 500 500 500 500 500 500 
500 500 500 500 500 500 500 500 500 
500 500 500 500 500 500 500 500 500 
500 500 500 500 500 500 500 500 500 
500 500 500 500 500 500 500 500 500 
500 500 500 500 500 500 500 500 500 
500 500 500 500 500 500 500 500 500 
500 500 500 500 500 500 500 500 500 
500 500 500 500 500 500 500 500 500 
500 500 500 500 500 500 500 500 500 
500 500 500 500 500 500 500 500 500 
500 500 500 500 500 500 500 500 500 
500 500 500 500 500 500 500 500 500 
500 500 500 500 500 500 500 500 500 
500 500 500 500 500 500 500 500 500 
500 500 500 500 500 500 500 500 500 
500 500 500 500 500 500 500 500 500 
500 500 500 500 500 500 500 500 500 
500 500 500 500 500 500 500 500 500 
500 500 500 500 500 500 500 500 500 
500 500 500 500 500 500 500 500 500 
500 500 500 500 500 500 500 500 500 
500 500 500 500 500 500 500 500 500 
500 500 500 500 500 500 500 500 500 
500 500 500 500 500 500 500 500 500 
500 500 500 500 500 500 500 500 500 
500 500 500 500 500 500 500 500 500 
500 500 500 500 500 500 500 500 500 
500 500 500 500 500 500 500 500 500 
500 500 500 500 500 500 500 500 500 
500 500 500 500 500 500 500 500 500 
500 500 500 500 500 500 500 500 500 
500 500 500 500 500 500 500 500 500 
500 500 500 500 500 500 500 500 500 
500 500 500 500 500 500 500 500 500 
500 500 500 500 500 500 500 500 500 
500 500 500 500 500 500 500 500 500 
500 500 500 500 500 500 500 500 500 
500 500 500 500 500 500 500 500 500 
500 500 500 500 500 500 500 500 500 
500 500 500 500 500 500 500 500 500 
500 500 500 500 500 500 500 500 500 
500 500 500 500 500 500 500 500 500 
500 500 500 500 500 500 500 500 500 
500 500 500 500 500 500 500 500 500 
500 500 500 500 500 500 500 500 500 
500 500 500 500 500 500 500 500 500 
500 500 500 500 500 500 500 500 500 
500 500 500 500 500 500 500 500 500 
500 500 500 500 500 500 500 500 500 
500 500 500 500 500 500 500 500 500 
500 500 500 500 500 500 500 500 500 
500 500 500 500 500 500 500 500 500 
500 500 500 500 500 500 500 500 500 
500 500 500 500 500 500 500 500 500 
500 500 500 500 500 500 500 500 500 
500 500 500 500 500 500 500 500 500 
500 500 500 500 500 500 500 500 500 
500 500 500 500 500 500 500 500 500 
500 500 500 500 500 500 500 500 500 
500 500 500 500 500 500 500 500 500 
500 500 500 500 500 500 500 500 500 
500 500 500 500 500 500 500 500 500 
500 500 500 500 500 500 500 500 500 
500 500 500 500 500 500 500 500 500 
500 500 500 500 500 500 500 500 500 
500 500 500 500 500 500 500 500 500 
500 500 500 500 500 500 500 500 500 
500 500 500 500 500 500 500 500 500 
500 500 500 500 500 500 500 500 500 
500 500 500 500 500 500 500 500 500 
500 500 500 500 500 500 500 500 500 
500 500 500 500 500 500 500 500 500 
500 500 500 500 500 500 500 500 500 
500 500 500 500 500 500 500 500 500 
500 500 500 500 500 500 500 500 500 
500 500 500 500 500 500 500 500 500 
500 500 500 500 500 500 500 500 500 
500 500 500 500 500 500 500 500 500 
500 500 500 500 500 500 500 500 500 
500 500 500 500 500 500 500 500 500 
500 500 500 500 500 500 500 500 500 
500 500 500 500 500 500 500 500 500 
500 500 500 500 500 500 500 500 500 
500 500 500 500 500 500 500 500 500 
500 500 500 500 500 500 500 500 500 
500 500 500 500 500 500 500 500 500 
500 500 500 500 500 500 500 500 500 
500 500 500 500 500 500 500 500 500 
500 500 500 500 500 500 500 500 500 
500 500 500 500 500 500 500 500 500 
500 500 500 500 500 500 500 500 500 
500 500 500 500 500 500 500 500 500 
500 500 500 500 500 500 500 500 500 
500 500 500 500 500 500 500 500 500 
500 500 500 500 500 500 500 500 500 
500 500 500 500 500 500 500 500 500 
500 500 500 500 500 500 500 500 500 
500 500 500 500 500 500 500 500 500 
500 500 500 500 500 500 500 500 500 
500 500 500 500 500 500 500 500 500 
500 500 500 500 500 500 500 500 500 
500 500 500 500 500 500 500 500 500 
500 500 500 500 500 500 500 500 500 
500 500 500 500 500 500 500 500 500 
500 500 500 500 500 500 500 500 500 
500 500 500 500 500 500 500 500 500 
500 500 500 500 500 500 500 500 500 
500 500 500 500 500 500 500 500 500 
500 500 500 500 500 500 500 500 500 
500 500 500 500 500 500 500 500 500 
500 500 500 500 500 500 500 500 500 
500 500 500 500 500 500 500 500 500 
500 500 500 500 500 500 500 500 500 
500 500 500 500 500 500 500 500 500 
500 500 500 500 500 500 500 500 500 
500 500 500 500 500 500 500 500 500 
500 500 500 500 500 500 500 500 500 
500 500 500 500 500 500 500 500 500 
500 500 500 500 500 500 500 500 500 
500 500 500 500 500 500 500 500 500 
500 500 500 500 500 500 500 500 500 
500 500 500 500 500 500 500 500 500 
500 500 500 500 500 500 500 500 500 
500 500 500 500 500 500 500 500 500 
500 500 500 500 500 500 500 500 500 
500 500 500 500 500 500 500 500 500 
500 500 500 500 500 500 500 500 500 
500 500 500 500 500 500 500 500 500 
500 500 500 500 500 500 500 500 500 
500 500 500 500 500 500 500 500 500 
500 500 500 500 500 500 500 500 500 
500 500 500 500 500 500 500 500 500 
500 500 500 500 500 500 500 500 500 
500 500 500 500 500 500 500 500 500 
500 500 500 500 500 500 500 500 500 
500 500 500 500 500 500 500 500 500 
500 500 500 500 500 500 500 500 500 
500 500 500 500 500 500 500 500 500 
500 500 500 500 500 500 500 500 500 
500 500 500 500 500 500 500 500 500 
500 500 500 500 500 500 500 500 500 
500 500 500 500 500 500 500 500 500 
500 500 500 500 500 500 500 500 500 
500 500 500 500 500 500 500 500 500 
500 500 500 500 500 500 500 500 500 
500 500 500 500 500 500 500 500 500 
500 500 500 500 500 500 500 500 500 
500 500 500 500 500 500 500 500 500 
500 500 500 500 500 500 500 500 500 
500 500 500 500 500 500 500 500 500 
500 500 500 500 500 500 500 500 500 
500 500 500 500 500 500 500 500 500 
500 500 500 500 500 500 500 500 500 
500 500 500 500 500 500 500 500 500 
500 500 500 500 500 500 500 500 500 
500 500 500 500 500 500 500 500 500 
500 500 500 500 500 500 500 500 500 
500 500 500 500 500 500 500 500 500 
500 500 500 500 500 500 500 500 500 
500 500 500 500 500 500 500 500 500 
500 500 500 500 500 500 500 500 500 
500 500 500 500 500 500 500 500 500 
500 500 500 500 500 500 500 500 500 
500 500 500 500 500 500 500 500 500 
500 500 500 500 500 500 500 500 500 
500 500 500 500 500 500 500 500 500 
500 500 500 500 500 500 500 500 500 
500 500 500 500 500 500 500 500 500 
500 500 500 500 500 500 500 500 500 
500 500 500 500 500 500 500 500 500 
500 500 500 500 500 500 500 500 500 
500 500 500 500 500 500 500 500 500 
500 500 500 500 500 500 500 500 500 
500 500 500 500 500 500 500 500 500 
500 500 500 500 500 500 500 500 500 
500 500 500 500 500 500 500 500 500 
500 500 500 500 500 500 500 500 500 
500 500 500 500 500 500 500 500 500 
500 500 500 500 500 500 500 500 500 
500 500 500 500 500 500 500 500 500 
500 500 500 500 500 500 500 500 500 
500 500 500 500 500 500 500 500 500 
500 500 500 500 500 500 500 500 500 
500 500 500 500 500 500 500 500 500 
500 500 500 500 500 500 500 500 500 
500 500 500 500 500 500 500 500 500 
500 500 500 500 500 500 500 500 500 
500 500 500 500 500 500 500 500 500 
500 500 500 500 500 500 500 500 500 
500 500 500 500 500 500 500 500 500 
500 500 500 500 500 500 500 500 500 
500 500 500 500 500 500 500 500 500 
500 500 500 500 500 500 500 500 500 
500 500 500 500 500 500 500 500 500 
500 500 500 500 500 500 500 500 500 
500 500 500 500 500 500 500 500 500 
500 500 500 500 500 500 500 500 500 
500 500 500 500 500 500 500 500 500 
500 500 500 500 500 500 500 500 500 
500 500 500 500 500 500 500 500 500 
500 500 500 500 500 500 500 500 500 
500 500 500 500 500 500 500 500 500 
500 500 500 500 500 500 500 500 500 
500 500 500 500 500 500 500 500 500 
500 500 500 500 500 500 500 500 500 
500 500 500 500 500 500 500 500 500 
500 500 500 500 500 500 500 500 500 
500 500 500 500 500 500 500 500 500 
500 500 500 500 500 500 500 500 500 
500 500 500 500 500 500 500 500 500 
500 500 500 500 500 500 500 500 500 
500 500 500 500 500 500 500 500 500 
500 500 500 500 500 500 500 500 500 
500 500 500 500 500 500 500 500 500 
500 500 500 500 500 500 500 500 500 
500 500 500 500 500 500 500 500 500 
500 500 500 500 500 500 500 500 500 
500 500 500 500 500 500 500 500 500 
500 500 500 500 500 500 500 500 500 
500 500 500 500 500 500 500 500 500 
500 500 500 500 500 500 500 500 500 
500 500 500 500 500 500 500 500 500 
500 500 500 500 500 500 500 500 500 
500 500 500 500 500 500 500 500 500 
500 500 500 500 500 500 500 500 500 
500 500 500 500 500 500 500 500 500 
500 500 500 500 500 500 500 500 500 
500 500 500 500 500 500 500 500 500 
500 500 500 500 500 500 500 500 500 
500 500 500 500 500 500 500 500 500 
500 500 500 500 500 500 500 500 500 
500 500 500 500 500 500 500 500 500 
500 500 500 500 500 500 500 500 500 
500 500 500 500 
NORMALS Normals float
-0.57735 0.57735 0.57735 -0.57735 0.577351 0.57735 -0.57735 0.57735 0.57735 
0 0.707107 0.707107 0 0.707108 0.707106 0 0.707107 0.707107 
0 0.707108 0.707106 0.57735 0.577351 0.57735 -0.707107 0 0.707107 
-0.707107 0 0.707107 0 0 1 0 0 1 
0.707107 0 0.707107 -0.707107 0 0.707107 -0.707107 0 0.707107 
0 0 1 0 0 1 0.57735 0.57735 0.57735 
0.57735 0.57735 0.57735 0.57735 0.57735 0.57735 -0.707107 0 0.707107 
-0.707107 0 0.707107 0 0 1 0 0 1 
0 0 1 0.707107 0 0.707107 -0.707107 0 0.707107 
-0.707107 0 0.707107 0 0 1 0 0 1 
0 0 1 0.707107 0 0.707107 -0.57735 -0.57735 0.57735 
-0.57735 -0.57735 0.57735 -0.57735 -0.57735 0.57735 0 0 1 
0 0 1 0.707107 0 0.707107 -0.707107 0 0.707107 
-0.707107 0 0.707107 0 0 1 0 0 1 
0.707107 0 0.707107 -0.57735 -0.57735 0.57735 0 -0.707107 0.707107 
0 -0.707107 0.707107 -0.57735 0.57735 0.57735 -0.57735 0.57735 0.57735 
-0.57735 0.57735 0.57735 0 0.707107 0.707107 0 0.707107 0.707107 
0 0.707107 0.707107 0 0.707107 0.707107 0.57735 0.57735 0.57735 
-0.707107 0 0.707107 -0.707107 0 0.707107 0 0 1 
0 0 1 0.707107 0 0.707107 -0.707107 0 0.707107 
-0.707107 0 0.707107 0 0 1 0 0 1 
0.707107 0 0.707107 -0.707107 0 0.707107 -0.707107 0 0.707107 
0 0 1 0 0 1 0.707107 0 0.707107 
-1 0 0 1 0 0 -1 0 0 
1 0 0 -1 0 0 0.707107 0.707107 0 
0.707107 0.707107 0 -0.57735 0.57735 0.57735 -0.57735 0.57735 0.57735 
-0.57735 0.57735 0.57735 1 0 0 -0.707107 0 0.707107 
-0.707107 0 0.707107 1 0 0 -0.707107 0 0.707107 
-0.707107 0 0.707107 -0.57735 -0.57735 0.57735 1 0 0 
-0.707107 0 0.707107 -0.707107 0 0.707107 0 0 1 
1 0 0 -0.57735 -0.57735 0.57735 -0.57735 -0.57735 0.57735 
-0.57735 -0.57735 0.57735 -0.57735 -0.57735 0.57735 0 -0.707107 0.707107 
0 -0.707107 0.707107 0.57735 -0.57735 0.57735 -0.57735 -0.57735 0.57735 
-0.57735 -0.57735 0.57735 -0.57735 -0.57735 0.57735 0 0 1 
0 0 1 0.707107 0 0.707107 -0.57735 -0.57735 0.57735 
0 -0.707107 0.707107 0 -0.707107 0.707107 -0.57735 0.57735 0.57735 
-0.57735 0.57735 0.57735 -0.57735 0.57735 0.57735 0 0.707107 0.707107 
0 0.707107 0.707107 0 0.707107 0.707107 0 0.707107 0.707107 
0.57735 0.57735 0.57735 -0.707107 0 0.707107 -0.707107 0 0.707107 
0 0 1 0 0 1 0.57735 0.57735 0.57735 
0.57735 0.57735 0.57735 0.57735 0.57735 0.57735 -0.707107 0 0.707107 
-0.707107 0 0.707107 1 0 0 -0.707107 0 0.707107 
-0.707107 0 0.707107 1 0 0 -0.707107 0 0.707107 
-0.707107 0 0.707107 0.57735 0.57735 0.57735 0.57735 0.57735 0.57735 
0.57735 0.57735 0.57735 -0.707107 0 0.707107 -0.707107 0 0.707107 
0.707107 0 0.707107 0.707107 0 0.707107 -0.707107 0 0.707107 
-0.707107 0 0.707107 0.707107 0 0.707107 0.707107 0 0.707107 
-0.57735 0.57735 0.57735 -0.57735 0.57735 0.57735 -0.57735 0.57735 0.57735 
0 0 1 0.707107 0 0.707107 0.707107 0 0.707107 
-0.707107 0 0.707107 -0.707107 0 0.707107 0 0 1 
1 0 0 -0.707107 0 0.707107 -0.707107 0 0.707107 
1 0 0 -0.707107 0 0.707107 -0.707107 0 0.707107 
1 0 0 -0.707107 0 0.707107 -0.707107 0 0.707107 
0.57735 0.57735 0.57735 0.57735 0.57735 0.57735 0.57735 0.57735 0.57735 
-0.707107 0 0.707107 -0.707107 0 0.707107 0.707107 0 0.707107 
0.707107 0 0.707107 -0.57735 -0.57735 0.57735 -0.57735 -0.57735 0.57735 
-0.57735 -0.57735 0.57735 0.707107 0 0.707107 0.707107 0 0.707107 
-0.57735 -0.57735 0.57735 -0.57735 -0.57735 0.57735 -0.57735 -0.57735 0.57735 
0.707107 0 0.707107 0.707107 0 0.707107 -0.57735 -0.57735 0.57735 
0 -1 0 0 -1 0 0 -1 0 
0.57735 -0.57735 0.57735 -0.57735 0.57735 0.57735 -0.57735 0.57735 0.57735 
-0.57735 0.57735 0.57735 0 0.707107 0.707107 0 0.707107 0.707107 
0 0.707107 0.707107 0 0.707107 0.707107 0 0.707107 0.707107 
0 0.707107 0.707107 0.57735 0.57735 0.57735 -0.707107 0 0.707107 
-0.707107 0 0.707107 1 0 0 -0.707107 0 0.707107 
-0.707107 0 0.707107 0.707107 0.707107 0 0.707107 0.707107 0 
-0.707107 0 0.707107 -0.707107 0 0.707107 1 0 0 
-0.707107 0 0.707107 -0.707107 0 0.707107 1 0 0 
-0.707107 0 0.707107 -0.707107 0 0.707107 0.707107 0.707107 0 
0.707107 0.707107 0 -0.707107 0 0.707107 -0.707107 0 0.707107 
1 0 0 -0.707107 0 0.707107 -0.707107 0 0.707107 
1 0 0 -0.57735 0.57735 0.57735 -0.57735 0.57735 0.57735 
-0.57735 0.57735 0.57735 1 0 0 -0.57735 0.57735 0.57735 
-0.57735 0.57735 0.57735 -0.57735 0.57735 0.57735 0 0 1 
1 0 0 -0.707107 0 0.707107 -0.707107 0 0.707107 
0 0 1 1 0 0 -0.707107 0 0.707107 
-0.707107 0 0.707107 0 0 1 1 0 0 
-0.707107 0 0.707107 -0.707107 0 0.707107 0 0 1 
0.707107 0.707107 0 0.707107 0.707107 0 -0.707107 0 0.707107 
-0.707107 0 0.707107 0 0 1 1 0 0 
-0.57735 -0.57735 0.57735 -0.57735 -0.57735 0.57735 -0.57735 -0.57735 0.57735 
-0.57735 -0.57735 0.57735 1 0 0 -0.57735 -0.57735 0.57735 
-0.57735 -0.57735 0.57735 -0.57735 -0.57735 0.57735 -0.57735 -0.57735 0.57735 
1 0 0 -0.57735 -0.57735 0.57735 0 -0.707107 0.707107 
-0.57735 -0.57735 0.57735 -0.57735 -0.57735 0.57735 0 -0.707107 0.707107 
0 -0.707107 0.707107 0 -0.707107 0.707107 0 -0.707107 0.707107 
0.57735 -0.57735 0.57735 -0.57735 -0.57735 0.57735 0 -0.707107 0.707107 
0 -0.707107 0.707107 0 -0.707107 0.707107 0 -0.707107 0.707107 
-0.57735 0.57735 0.57735 -0.57735 0.57735 0.57735 -0.57735 0.57735 0.57735 
0 0.707107 0.707107 0 0.707107 0.707107 0 0.707107 0.707107 
0 0.707107 0.707107 0.57735 0.57735 0.57735 -0.57735 0.57735 0.57735 
-0.57735 0.57735 0.57735 -0.57735 0.57735 0.57735 0 0 1 
0 0 1 0 0 1 0.707107 0 0.707107 
-0.707107 0 0.707107 -0.707107 0 0.707107 0 0 1 
0 0 1 0 0 1 0.57735 0.57735 0.57735 
0.57735 0.57735 0.57735 0.57735 0.57735 0.57735 -0.707107 0 0.707107 
-0.707107 0 0.707107 1 0 0 -0.707107 0 0.707107 
-0.707107 0 0.707107 1 0 0 -0.707107 0 0.707107 
-0.707107 0 0.707107 0.707107 0.707107 0 0.707107 0.707107 0 
-0.707107 0 0.707107 -0.707107 0 0.707107 1 0 0 
-0.707107 0 0.707107 -0.707107 0 0.707107 1 0 0 
-0.707107 0 0.707107 -0.707107 0 0.707107 0.707107 0.707107 0 
0.707107 0.707107 0 -0.57735 0.57735 0.57735 -0.57735 0.57735 0.57735 
-0.57735 0.577351 0.57735 0 0 1 1 0 0 
-0.57735 0.577351 0.57735 -0.57735 0.577351 0.57735 -0.57735 0.57735 0.57735 
0 0 1 0 0 1 1 0 0 
-0.57735 0.57735 0.57735 -0.57735 0.57735 0.57735 -0.57735 0.57735 0.57735 
0 0 1 0 0 1 1 0 0 
-0.707107 0 0.707107 -0.707107 0 0.707107 0 0 1 
1 0 0 -0.707107 0 0.707107 -0.707107 0 0.707107 
0 0 1 0.57735 -0.57735 -0.57735 0.57735 -0.57735 -0.57735 
0.57735 -0.57735 -0.57735 -0.707107 0 0.707107 -0.707107 0 0.707107 
0 0 1 0.707107 0 -0.707107 0.707107 0 -0.707107 
-0.707107 0 0.707107 -0.707107 0 0.707107 0 0 1 
0.57735 0.57735 -0.57735 0 1 0 0.707107 0.707107 0 
-0.707107 0 0.707107 -0.707107 0 0.707107 0 0 1 
1 0 0 -0.57735 -0.57735 0.57735 -0.57735 -0.57735 0.57735 
-0.57735 -0.57735 0.57735 -0.57735 -0.57735 0.57735 1 0 0 
-0.57735 -0.57735 0.57735 0 -0.707107 0.707107 -0.57735 -0.57735 0.57735 
-0.57735 -0.57735 0.57735 1 0 0 -0.57735 -0.57735 0.57735 
0 -1 0 -0.57735 -0.57735 0.57735 -0.57735 -0.57735 0.57735 
1 0 0 -0.57735 -0.57735 0.57735 0 -1 0 
0 -1 0 0 -1 0 0 -1 0 
0 -1 0 -0.57735 0.57735 0.57735 -0.57735 0.57735 0.57735 
-0.57735 0.57735 0.57735 0 0.707107 0.707107 0 0.707107 0.707107 
0 0.707107 0.707107 0 0.707107 0.707107 0.57735 0.57735 0.57735 
-0.707107 0 0.707107 -0.707107 0 0.707107 0 0 1 
0 0 1 0.707107 0 0.707107 -0.707107 0 0.707107 
-0.707107 0 0.707107 0 0 1 0 0 1 
0.57735 0.57735 0.57735 0.57735 0.57735 0.57735 0.57735 0.57735 0.57735 
-0.707107 0 0.707107 -0.707107 0 0.707107 0 0 1 
0 0 1 0 0 1 0.707107 0 0.707107 
-0.707107 0 0.707107 -0.707107 0 0.707107 0 0 1 
0 0 1 0 0 1 0.707107 0 0.707107 
-0.707107 0 0.707107 -0.707107 0 0.707107 0 0 1 
0.57735 0.57735 0.57735 0.707107 0.707107 0 -0.57735 0.57735 0.57735 
-0.57735 0.57735 0.57735 -0.57735 0.57735 0.57735 0 0 1 
1 0 0 -0.707107 0 0.707107 -0.707107 0 0.707107 
0 0 1 0.707107 0.707107 0 0.707107 0.707107 0 
-0.707107 0 0.707107 -0.707107 0 0.707107 0 0 1 
1 0 0 -0.707107 0 0.707107 -0.707107 0 0.707107 
0 0 1 1 0 0 -0.707107 0 0.707107 
-0.707107 0 0.707107 0 0 1 0.707107 0.707107 0 
0.707107 0.707107 0 -0.707107 0 0.707107 -0.707107 0 0.707107 
0 0 1 1 0 0 -0.707107 0 0.707107 
-0.707107 0 0.707107 0 0 1 1 0 0 
-0.57735 0.57735 0.57735 -0.57735 0.57735 0.57735 -0.57735 0.57735 0.57735 
0 0 1 0 0 1 0.57735 0.57735 -0.57735 
0.57735 0.57735 -0.57735 -0.707107 0 0.707107 -0.707107 0 0.707107 
0 0 1 0.707107 0 -0.707107 0.707107 0 -0.707107 
-0.57735 0.577351 0.57735 -0.57735 0.577351 0.57735 -0.57735 0.57735 0.57735 
0 0 1 0.707107 0 -0.707107 0.707107 0 -0.707107 
-0.57735 0.57735 0.57735 -0.57735 0.57735 0.57735 -0.57735 0.57735 0.57735 
0 0 1 0.707107 0 -0.707107 0.707107 0 -0.707107 
-0.707107 0 0.707107 -0.707107 0 0.707107 0 0 1 
0.707107 0 -0.707107 0.707107 0 -0.707107 -0.707107 0 0.707107 
-0.707107 0 0.707107 0 0 1 1 0 0 
-0.707107 0 0.707107 -0.707107 0 0.707107 0 0 1 
0.57735 -0.57735 -0.57735 0.57735 -0.57735 -0.57735 0.57735 -0.57735 -0.57735 
-0.707107 0 0.707107 -0.707107 0 0.707107 0 0 1 
0.57735 0.57735 -0.57735 0.57735 0.57735 -0.57735 0.57735 0.57735 -0.57735 
0 0.707107 -0.707107 -0.57735 -0.57735 0.57735 -0.57735 -0.57735 0.57735 
-0.57735 -0.57735 0.57735 0.57735 0.57735 -0.57735 0 0.707107 -0.707107 